# vtk DataFile Version 2.0
track0
ASCII
DATASET POLYDATA
POINTS 1720 double
-1.001 -0.05 0.0011
-1.0008 -0.05 0.0011
-1.0006 -0.05 0.0011
-1.0004 -0.05 0.0011
-1.0002 -0.05 0.0011
-1 -0.05 0.0011
-0.8 -0.05 0.0011
-0.6 -0.05 0.0011
-0.4 -0.05 0.0011
-0.2 -0.05 0.0011
0 -0.05 0.0011
0.2 -0.05 0.0011
0.4 -0.05 0.0011
0.6 -0.05 0.0011
0.8 -0.05 0.0011
1 -0.05 0.0011
1.2 -0.05 0.0011
1.4 -0.05 0.0011
1.6 -0.05 0.0011
1.8 -0.05 0.0011
2 -0.05 0.0011
2.2 -0.05 0.0011
2.4 -0.05 0.0011
2.6 -0.05 0.0011
2.8 -0.05 0.0011
3 -0.05 0.0011
3.2 -0.05 0.0011
3.4 -0.05 0.0011
3.6 -0.05 0.0011
3.8 -0.05 0.0011
4 -0.05 0.0011
4.2 -0.05 0.0011
4.4 -0.05 0.0011
4.6 -0.05 0.0011
4.8 -0.05 0.0011
5 -0.05 0.0011
5.2 -0.05 0.0011
5.4 -0.05 0.0011
5.6 -0.05 0.0011
5.8 -0.05 0.0011
6 -0.05 0.0011
6.2 -0.05 0.0011
6.4 -0.05 0.0011
6.6 -0.05 0.0011
6.8 -0.05 0.0011
7 -0.05 0.0011
7.2 -0.05 0.0011
7.4 -0.05 0.0011
7.6 -0.05 0.0011
7.8 -0.05 0.0011
8 -0.05 0.0011
8.2 -0.05 0.0011
8.4 -0.05 0.0011
8.6 -0.05 0.0011
8.8 -0.05 0.0011
9 -0.05 0.0011
9.2 -0.05 0.0011
9.4 -0.05 0.0011
9.6 -0.05 0.0011
9.8 -0.05 0.0011
10 -0.05 0.0011
10.2 -0.05 0.0011
10.4 -0.05 0.0011
10.6 -0.05 0.0011
10.8 -0.05 0.0011
11 -0.05 0.0011
11.2 -0.05 0.0011
11.4 -0.05 0.0011
11.6 -0.05 0.0011
11.8 -0.05 0.0011
12 -0.05 0.0011
12.2 -0.05 0.0011
12.4 -0.05 0.0011
12.6 -0.05 0.0011
12.8 -0.05 0.0011
13 -0.05 0.0011
13.2 -0.05 0.0011
13.4 -0.05 0.0011
13.6 -0.05 0.0011
13.8 -0.05 0.0011
14 -0.05 0.0011
14.2 -0.05 0.0011
14.4 -0.05 0.0011
14.6 -0.05 0.0011
14.8 -0.05 0.0011
15 -0.05 0.0011
-1.001 -0.05 0.0537316
-1.0008 -0.05 0.0537316
-1.0006 -0.05 0.0537316
-1.0004 -0.05 0.0537316
-1.0002 -0.05 0.0537316
-1 -0.05 0.0537316
-0.8 -0.05 0.0537316
-0.6 -0.05 0.0537316
-0.4 -0.05 0.0537316
-0.2 -0.05 0.0537316
0 -0.05 0.0537316
0.2 -0.05 0.0537316
0.4 -0.05 0.0537316
0.6 -0.05 0.0537316
0.8 -0.05 0.0537316
1 -0.05 0.0537316
1.2 -0.05 0.0537316
1.4 -0.05 0.0537316
1.6 -0.05 0.0537316
1.8 -0.05 0.0537316
2 -0.05 0.0537316
2.2 -0.05 0.0537316
2.4 -0.05 0.0537316
2.6 -0.05 0.0537316
2.8 -0.05 0.0537316
3 -0.05 0.0537316
3.2 -0.05 0.0537316
3.4 -0.05 0.0537316
3.6 -0.05 0.0537316
3.8 -0.05 0.0537316
4 -0.05 0.0537316
4.2 -0.05 0.0537316
4.4 -0.05 0.0537316
4.6 -0.05 0.0537316
4.8 -0.05 0.0537316
5 -0.05 0.0537316
5.2 -0.05 0.0537316
5.4 -0.05 0.0537316
5.6 -0.05 0.0537316
5.8 -0.05 0.0537316
6 -0.05 0.0537316
6.2 -0.05 0.0537316
6.4 -0.05 0.0537316
6.6 -0.05 0.0537316
6.8 -0.05 0.0537316
7 -0.05 0.0537316
7.2 -0.05 0.0537316
7.4 -0.05 0.0537316
7.6 -0.05 0.0537316
7.8 -0.05 0.0537316
8 -0.05 0.0537316
8.2 -0.05 0.0537316
8.4 -0.05 0.0537316
8.6 -0.05 0.0537316
8.8 -0.05 0.0537316
9 -0.05 0.0537316
9.2 -0.05 0.0537316
9.4 -0.05 0.0537316
9.6 -0.05 0.0537316
9.8 -0.05 0.0537316
10 -0.05 0.0537316
10.2 -0.05 0.0537316
10.4 -0.05 0.0537316
10.6 -0.05 0.0537316
10.8 -0.05 0.0537316
11 -0.05 0.0537316
11.2 -0.05 0.0537316
11.4 -0.05 0.0537316
11.6 -0.05 0.0537316
11.8 -0.05 0.0537316
12 -0.05 0.0537316
12.2 -0.05 0.0537316
12.4 -0.05 0.0537316
12.6 -0.05 0.0537316
12.8 -0.05 0.0537316
13 -0.05 0.0537316
13.2 -0.05 0.0537316
13.4 -0.05 0.0537316
13.6 -0.05 0.0537316
13.8 -0.05 0.0537316
14 -0.05 0.0537316
14.2 -0.05 0.0537316
14.4 -0.05 0.0537316
14.6 -0.05 0.0537316
14.8 -0.05 0.0537316
15 -0.05 0.0537316
-1.001 -0.05 0.106363
-1.0008 -0.05 0.106363
-1.0006 -0.05 0.106363
-1.0004 -0.05 0.106363
-1.0002 -0.05 0.106363
-1 -0.05 0.106363
-0.8 -0.05 0.106363
-0.6 -0.05 0.106363
-0.4 -0.05 0.106363
-0.2 -0.05 0.106363
0 -0.05 0.106363
0.2 -0.05 0.106363
0.4 -0.05 0.106363
0.6 -0.05 0.106363
0.8 -0.05 0.106363
1 -0.05 0.106363
1.2 -0.05 0.106363
1.4 -0.05 0.106363
1.6 -0.05 0.106363
1.8 -0.05 0.106363
2 -0.05 0.106363
2.2 -0.05 0.106363
2.4 -0.05 0.106363
2.6 -0.05 0.106363
2.8 -0.05 0.106363
3 -0.05 0.106363
3.2 -0.05 0.106363
3.4 -0.05 0.106363
3.6 -0.05 0.106363
3.8 -0.05 0.106363
4 -0.05 0.106363
4.2 -0.05 0.106363
4.4 -0.05 0.106363
4.6 -0.05 0.106363
4.8 -0.05 0.106363
5 -0.05 0.106363
5.2 -0.05 0.106363
5.4 -0.05 0.106363
5.6 -0.05 0.106363
5.8 -0.05 0.106363
6 -0.05 0.106363
6.2 -0.05 0.106363
6.4 -0.05 0.106363
6.6 -0.05 0.106363
6.8 -0.05 0.106363
7 -0.05 0.106363
7.2 -0.05 0.106363
7.4 -0.05 0.106363
7.6 -0.05 0.106363
7.8 -0.05 0.106363
8 -0.05 0.106363
8.2 -0.05 0.106363
8.4 -0.05 0.106363
8.6 -0.05 0.106363
8.8 -0.05 0.106363
9 -0.05 0.106363
9.2 -0.05 0.106363
9.4 -0.05 0.106363
9.6 -0.05 0.106363
9.8 -0.05 0.106363
10 -0.05 0.106363
10.2 -0.05 0.106363
10.4 -0.05 0.106363
10.6 -0.05 0.106363
10.8 -0.05 0.106363
11 -0.05 0.106363
11.2 -0.05 0.106363
11.4 -0.05 0.106363
11.6 -0.05 0.106363
11.8 -0.05 0.106363
12 -0.05 0.106363
12.2 -0.05 0.106363
12.4 -0.05 0.106363
12.6 -0.05 0.106363
12.8 -0.05 0.106363
13 -0.05 0.106363
13.2 -0.05 0.106363
13.4 -0.05 0.106363
13.6 -0.05 0.106363
13.8 -0.05 0.106363
14 -0.05 0.106363
14.2 -0.05 0.106363
14.4 -0.05 0.106363
14.6 -0.05 0.106363
14.8 -0.05 0.106363
15 -0.05 0.106363
-1.001 -0.05 0.158995
-1.0008 -0.05 0.158995
-1.0006 -0.05 0.158995
-1.0004 -0.05 0.158995
-1.0002 -0.05 0.158995
-1 -0.05 0.158995
-0.8 -0.05 0.158995
-0.6 -0.05 0.158995
-0.4 -0.05 0.158995
-0.2 -0.05 0.158995
0 -0.05 0.158995
0.2 -0.05 0.158995
0.4 -0.05 0.158995
0.6 -0.05 0.158995
0.8 -0.05 0.158995
1 -0.05 0.158995
1.2 -0.05 0.158995
1.4 -0.05 0.158995
1.6 -0.05 0.158995
1.8 -0.05 0.158995
2 -0.05 0.158995
2.2 -0.05 0.158995
2.4 -0.05 0.158995
2.6 -0.05 0.158995
2.8 -0.05 0.158995
3 -0.05 0.158995
3.2 -0.05 0.158995
3.4 -0.05 0.158995
3.6 -0.05 0.158995
3.8 -0.05 0.158995
4 -0.05 0.158995
4.2 -0.05 0.158995
4.4 -0.05 0.158995
4.6 -0.05 0.158995
4.8 -0.05 0.158995
5 -0.05 0.158995
5.2 -0.05 0.158995
5.4 -0.05 0.158995
5.6 -0.05 0.158995
5.8 -0.05 0.158995
6 -0.05 0.158995
6.2 -0.05 0.158995
6.4 -0.05 0.158995
6.6 -0.05 0.158995
6.8 -0.05 0.158995
7 -0.05 0.158995
7.2 -0.05 0.158995
7.4 -0.05 0.158995
7.6 -0.05 0.158995
7.8 -0.05 0.158995
8 -0.05 0.158995
8.2 -0.05 0.158995
8.4 -0.05 0.158995
8.6 -0.05 0.158995
8.8 -0.05 0.158995
9 -0.05 0.158995
9.2 -0.05 0.158995
9.4 -0.05 0.158995
9.6 -0.05 0.158995
9.8 -0.05 0.158995
10 -0.05 0.158995
10.2 -0.05 0.158995
10.4 -0.05 0.158995
10.6 -0.05 0.158995
10.8 -0.05 0.158995
11 -0.05 0.158995
11.2 -0.05 0.158995
11.4 -0.05 0.158995
11.6 -0.05 0.158995
11.8 -0.05 0.158995
12 -0.05 0.158995
12.2 -0.05 0.158995
12.4 -0.05 0.158995
12.6 -0.05 0.158995
12.8 -0.05 0.158995
13 -0.05 0.158995
13.2 -0.05 0.158995
13.4 -0.05 0.158995
13.6 -0.05 0.158995
13.8 -0.05 0.158995
14 -0.05 0.158995
14.2 -0.05 0.158995
14.4 -0.05 0.158995
14.6 -0.05 0.158995
14.8 -0.05 0.158995
15 -0.05 0.158995
-1.001 -0.05 0.211626
-1.0008 -0.05 0.211626
-1.0006 -0.05 0.211626
-1.0004 -0.05 0.211626
-1.0002 -0.05 0.211626
-1 -0.05 0.211626
-0.8 -0.05 0.211626
-0.6 -0.05 0.211626
-0.4 -0.05 0.211626
-0.2 -0.05 0.211626
0 -0.05 0.211626
0.2 -0.05 0.211626
0.4 -0.05 0.211626
0.6 -0.05 0.211626
0.8 -0.05 0.211626
1 -0.05 0.211626
1.2 -0.05 0.211626
1.4 -0.05 0.211626
1.6 -0.05 0.211626
1.8 -0.05 0.211626
2 -0.05 0.211626
2.2 -0.05 0.211626
2.4 -0.05 0.211626
2.6 -0.05 0.211626
2.8 -0.05 0.211626
3 -0.05 0.211626
3.2 -0.05 0.211626
3.4 -0.05 0.211626
3.6 -0.05 0.211626
3.8 -0.05 0.211626
4 -0.05 0.211626
4.2 -0.05 0.211626
4.4 -0.05 0.211626
4.6 -0.05 0.211626
4.8 -0.05 0.211626
5 -0.05 0.211626
5.2 -0.05 0.211626
5.4 -0.05 0.211626
5.6 -0.05 0.211626
5.8 -0.05 0.211626
6 -0.05 0.211626
6.2 -0.05 0.211626
6.4 -0.05 0.211626
6.6 -0.05 0.211626
6.8 -0.05 0.211626
7 -0.05 0.211626
7.2 -0.05 0.211626
7.4 -0.05 0.211626
7.6 -0.05 0.211626
7.8 -0.05 0.211626
8 -0.05 0.211626
8.2 -0.05 0.211626
8.4 -0.05 0.211626
8.6 -0.05 0.211626
8.8 -0.05 0.211626
9 -0.05 0.211626
9.2 -0.05 0.211626
9.4 -0.05 0.211626
9.6 -0.05 0.211626
9.8 -0.05 0.211626
10 -0.05 0.211626
10.2 -0.05 0.211626
10.4 -0.05 0.211626
10.6 -0.05 0.211626
10.8 -0.05 0.211626
11 -0.05 0.211626
11.2 -0.05 0.211626
11.4 -0.05 0.211626
11.6 -0.05 0.211626
11.8 -0.05 0.211626
12 -0.05 0.211626
12.2 -0.05 0.211626
12.4 -0.05 0.211626
12.6 -0.05 0.211626
12.8 -0.05 0.211626
13 -0.05 0.211626
13.2 -0.05 0.211626
13.4 -0.05 0.211626
13.6 -0.05 0.211626
13.8 -0.05 0.211626
14 -0.05 0.211626
14.2 -0.05 0.211626
14.4 -0.05 0.211626
14.6 -0.05 0.211626
14.8 -0.05 0.211626
15 -0.05 0.211626
-1.001 -0.05 0.264258
-1.0008 -0.05 0.264258
-1.0006 -0.05 0.264258
-1.0004 -0.05 0.264258
-1.0002 -0.05 0.264258
-1 -0.05 0.264258
-0.8 -0.05 0.264258
-0.6 -0.05 0.264258
-0.4 -0.05 0.264258
-0.2 -0.05 0.264258
0 -0.05 0.264258
0.2 -0.05 0.264258
0.4 -0.05 0.264258
0.6 -0.05 0.264258
0.8 -0.05 0.264258
1 -0.05 0.264258
1.2 -0.05 0.264258
1.4 -0.05 0.264258
1.6 -0.05 0.264258
1.8 -0.05 0.264258
2 -0.05 0.264258
2.2 -0.05 0.264258
2.4 -0.05 0.264258
2.6 -0.05 0.264258
2.8 -0.05 0.264258
3 -0.05 0.264258
3.2 -0.05 0.264258
3.4 -0.05 0.264258
3.6 -0.05 0.264258
3.8 -0.05 0.264258
4 -0.05 0.264258
4.2 -0.05 0.264258
4.4 -0.05 0.264258
4.6 -0.05 0.264258
4.8 -0.05 0.264258
5 -0.05 0.264258
5.2 -0.05 0.264258
5.4 -0.05 0.264258
5.6 -0.05 0.264258
5.8 -0.05 0.264258
6 -0.05 0.264258
6.2 -0.05 0.264258
6.4 -0.05 0.264258
6.6 -0.05 0.264258
6.8 -0.05 0.264258
7 -0.05 0.264258
7.2 -0.05 0.264258
7.4 -0.05 0.264258
7.6 -0.05 0.264258
7.8 -0.05 0.264258
8 -0.05 0.264258
8.2 -0.05 0.264258
8.4 -0.05 0.264258
8.6 -0.05 0.264258
8.8 -0.05 0.264258
9 -0.05 0.264258
9.2 -0.05 0.264258
9.4 -0.05 0.264258
9.6 -0.05 0.264258
9.8 -0.05 0.264258
10 -0.05 0.264258
10.2 -0.05 0.264258
10.4 -0.05 0.264258
10.6 -0.05 0.264258
10.8 -0.05 0.264258
11 -0.05 0.264258
11.2 -0.05 0.264258
11.4 -0.05 0.264258
11.6 -0.05 0.264258
11.8 -0.05 0.264258
12 -0.05 0.264258
12.2 -0.05 0.264258
12.4 -0.05 0.264258
12.6 -0.05 0.264258
12.8 -0.05 0.264258
13 -0.05 0.264258
13.2 -0.05 0.264258
13.4 -0.05 0.264258
13.6 -0.05 0.264258
13.8 -0.05 0.264258
14 -0.05 0.264258
14.2 -0.05 0.264258
14.4 -0.05 0.264258
14.6 -0.05 0.264258
14.8 -0.05 0.264258
15 -0.05 0.264258
-1.001 -0.05 0.316889
-1.0008 -0.05 0.316889
-1.0006 -0.05 0.316889
-1.0004 -0.05 0.316889
[...]
POINT_DATA 1720
 FIELD attributes 2
p 1 1720 float
-1.74784e-13 -1.74779e-13 -1.74774e-13 -1.7477e-13 -1.74765e-13 -1.7476e-13 -1.71996e-13 -1.69242e-13 -1.66488e-13 -1.63733e-13 -1.61072e-13 -1.6254e-13 -1.6402e-13 -1.655e-13 -1.6698e-13 -1.68407e-13 -1.6982e-13 -1.71233e-13 -1.72645e-13 -1.74057e-13 -1.75501e-13 -1.73241e-13 -1.70967e-13 -1.68693e-13 -1.66419e-13 -1.64297e-13 -1.60262e-13 -1.56225e-13 -1.52187e-13 -1.4815e-13 -1.43836e-13 -1.39747e-13 -1.35666e-13 -1.31585e-13 -1.27504e-13 -1.23332e-13 -1.19661e-13 -1.15993e-13 -1.12325e-13 -1.08657e-13 -1.05135e-13 -1.0227e-13 -9.94014e-14 -9.65328e-14 -9.36642e-14 -9.08552e-14 -8.86514e-14 -8.64614e-14 -8.42715e-14 -8.20815e-14 -8.01514e-14 -7.70249e-14 -7.38827e-14 -7.07404e-14 -6.75981e-14 -6.44361e-14 -6.15997e-14 -5.87725e-14 -5.59453e-14 -5.31181e-14 -5.01445e-14 -4.96544e-14 -4.91617e-14 -4.86689e-14 -4.81761e-14 -4.77578e-14 -4.55798e-14 -4.33886e-14 -4.11974e-14 -3.90062e-14 -3.69917e-14 -3.20433e-14 -2.70911e-14 -2.21389e-14 -1.71867e-14 -1.22288e-14 -9.5917e-15 -6.96513e-15 -4.33856e-15 -1.71199e-15 9.10477e-16 7.25639e-16 5.34326e-16 3.43012e-16 1.51699e-16 5.40417e-17
-1.74796e-13 -1.74791e-13 -1.74787e-13 -1.74782e-13 -1.74777e-13 -1.74772e-13 -1.71584e-13 -1.68829e-13 -1.66075e-13 -1.63321e-13 -1.61317e-13 -1.62243e-13 -1.63723e-13 -1.65203e-13 -1.66683e-13 -1.68545e-13 -1.70009e-13 -1.71421e-13 -1.72833e-13 -1.74246e-13 -1.75407e-13 -1.7379e-13 -1.71515e-13 -1.69241e-13 -1.66967e-13 -1.64298e-13 -1.60377e-13 -1.5634e-13 -1.52302e-13 -1.48265e-13 -1.43911e-13 -1.39475e-13 -1.35393e-13 -1.31312e-13 -1.27231e-13 -1.23302e-13 -1.19527e-13 -1.15859e-13 -1.12191e-13 -1.08523e-13 -1.05034e-13 -1.02325e-13 -9.94565e-14 -9.65879e-14 -9.37193e-14 -9.08075e-14 -8.79906e-14 -8.58007e-14 -8.36107e-14 -8.14207e-14 -8.01423e-14 -7.77256e-14 -7.45833e-14 -7.14411e-14 -6.82988e-14 -6.45742e-14 -6.13332e-14 -5.8506e-14 -5.56787e-14 -5.28515e-14 -5.0314e-14 -4.99277e-14 -4.94349e-14 -4.89422e-14 -4.84494e-14 -4.77412e-14 -4.61402e-14 -4.3949e-14 -4.17578e-14 -3.95666e-14 -3.68126e-14 -3.20485e-14 -2.70964e-14 -2.21442e-14 -1.7192e-14 -1.22944e-14 -9.20261e-15 -6.57604e-15 -3.94947e-15 -1.3229e-15 6.73496e-16 7.92533e-16 6.0122e-16 4.09907e-16 2.18594e-16 4.29567e-17
-1.74808e-13 -1.74803e-13 -1.74799e-13 -1.74794e-13 -1.74789e-13 -1.74784e-13 -1.71829e-13 -1.69075e-13 -1.6632e-13 -1.63566e-13 -1.61562e-13 -1.62381e-13 -1.63861e-13 -1.65341e-13 -1.66821e-13 -1.68683e-13 -1.69914e-13 -1.71327e-13 -1.72739e-13 -1.74151e-13 -1.75313e-13 -1.73791e-13 -1.71517e-13 -1.69242e-13 -1.66968e-13 -1.64299e-13 -1.60452e-13 -1.56415e-13 -1.52377e-13 -1.4834e-13 -1.43986e-13 -1.39445e-13 -1.35364e-13 -1.31282e-13 -1.27201e-13 -1.23272e-13 -1.19427e-13 -1.15758e-13 -1.1209e-13 -1.08422e-13 -1.04934e-13 -1.02277e-13 -9.94088e-14 -9.65402e-14 -9.36716e-14 -9.07597e-14 -8.79815e-14 -8.57916e-14 -8.36016e-14 -8.14116e-14 -8.01332e-14 -7.78637e-14 -7.47214e-14 -7.15791e-14 -6.84369e-14 -6.47122e-14 -6.15026e-14 -5.86754e-14 -5.58482e-14 -5.3021e-14 -5.04834e-14 -4.9911e-14 -4.94183e-14 -4.89255e-14 -4.84328e-14 -4.77245e-14 -4.59611e-14 -4.37699e-14 -4.15787e-14 -3.93875e-14 -3.66335e-14 -3.21142e-14 -2.7162e-14 -2.22098e-14 -1.72576e-14 -1.23601e-14 -9.43959e-15 -6.81302e-15 -4.18645e-15 -1.55988e-15 4.36515e-16 7.81448e-16 5.90135e-16 3.98822e-16 2.07509e-16 3.18717e-17
-1.7482e-13 -1.74815e-13 -1.74811e-13 -1.74806e-13 -1.74801e-13 -1.74796e-13 -1.72074e-13 -1.6932e-13 -1.66566e-13 -1.63812e-13 -1.61807e-13 -1.62519e-13 -1.63999e-13 -1.65479e-13 -1.6696e-13 -1.68821e-13 -1.6982e-13 -1.71232e-13 -1.72644e-13 -1.74057e-13 -1.75218e-13 -1.73792e-13 -1.71518e-13 -1.69244e-13 -1.66969e-13 -1.64301e-13 -1.60527e-13 -1.5649e-13 -1.52452e-13 -1.48415e-13 -1.44061e-13 -1.39415e-13 -1.35334e-13 -1.31252e-13 -1.27171e-13 -1.23242e-13 -1.19326e-13 -1.15658e-13 -1.11989e-13 -1.08321e-13 -1.04833e-13 -1.0223e-13 -9.9361e-14 -9.64924e-14 -9.36239e-14 -9.0712e-14 -8.79724e-14 -8.57825e-14 -8.35925e-14 -8.14025e-14 -8.01241e-14 -7.80017e-14 -7.48595e-14 -7.17172e-14 -6.8575e-14 -6.48503e-14 -6.1672e-14 -5.88448e-14 -5.60176e-14 -5.31904e-14 -5.06528e-14 -4.98944e-14 -4.94016e-14 -4.89089e-14 -4.84161e-14 -4.77079e-14 -4.5782e-14 -4.35908e-14 -4.13996e-14 -3.92084e-14 -3.64544e-14 -3.21798e-14 -2.72276e-14 -2.22754e-14 -1.73233e-14 -1.24257e-14 -9.67657e-15 -7.05e-15 -4.42343e-15 -1.79686e-15 1.99535e-16 7.70363e-16 5.7905e-16 3.87737e-16 1.96423e-16 2.07866e-17
-1.74832e-13 -1.74827e-13 -1.74823e-13 -1.74818e-13 -1.74813e-13 -1.74808e-13 -1.72268e-13 -1.69565e-13 -1.66811e-13 -1.64057e-13 -1.62053e-13 -1.62681e-13 -1.64137e-13 -1.65617e-13 -1.67098e-13 -1.68959e-13 -1.69777e-13 -1.71138e-13 -1.7255e-13 -1.73962e-13 -1.75124e-13 -1.73772e-13 -1.71519e-13 -1.69245e-13 -1.66971e-13 -1.64302e-13 -1.60585e-13 -1.56564e-13 -1.52527e-13 -1.4849e-13 -1.44135e-13 -1.39408e-13 -1.35304e-13 -1.31223e-13 -1.27141e-13 -1.23212e-13 -1.19241e-13 -1.15557e-13 -1.11889e-13 -1.08221e-13 -1.04732e-13 -1.0217e-13 -9.93133e-14 -9.64447e-14 -9.35761e-14 -9.06643e-14 -8.79548e-14 -8.57734e-14 -8.35834e-14 -8.13934e-14 -8.0115e-14 -7.81073e-14 -7.49975e-14 -7.18553e-14 -6.8713e-14 -6.49884e-14 -6.18346e-14 -5.90143e-14 -5.61871e-14 -5.33598e-14 -5.08223e-14 -4.99189e-14 -4.9385e-14 -4.88922e-14 -4.83995e-14 -4.76913e-14 -4.56388e-14 -4.34117e-14 -4.12205e-14 -3.90293e-14 -3.62753e-14 -3.21914e-14 -2.72933e-14 -2.23411e-14 -1.73889e-14 -1.24913e-14 -9.8757e-15 -7.28698e-15 -4.66041e-15 -2.03384e-15 -3.74462e-17 7.09378e-16 5.67965e-16 3.76652e-16 1.85338e-16 9.70162e-18
-1.74844e-13 -1.74839e-13 -1.74835e-13 -1.7483e-13 -1.74825e-13 -1.7482e-13 -1.7228e-13 -1.69811e-13 -1.67056e-13 -1.64302e-13 -1.62298e-13 -1.62926e-13 -1.64275e-13 -1.65756e-13 -1.67236e-13 -1.69097e-13 -1.69915e-13 -1.71043e-13 -1.72456e-13 -1.73868e-13 -1.75029e-13 -1.73678e-13 -1.71521e-13 -1.69246e-13 -1.66972e-13 -1.64303e-13 -1.60587e-13 -1.56639e-13 -1.52602e-13 -1.48565e-13 -1.4421e-13 -1.39483e-13 -1.35274e-13 -1.31193e-13 -1.27111e-13 -1.23182e-13 -1.19211e-13 -1.15456e-13 -1.11788e-13 -1.0812e-13 -1.04632e-13 -1.0207e-13 -9.92656e-14 -9.6397e-14 -9.35284e-14 -9.06165e-14 -8.79071e-14 -8.57643e-14 -8.35743e-14 -8.13843e-14 -8.01059e-14 -7.80982e-14 -7.51356e-14 -7.19934e-14 -6.88511e-14 -6.51265e-14 -6.19726e-14 -5.91837e-14 -5.63565e-14 -5.35293e-14 -5.09917e-14 -5.00883e-14 -4.93684e-14 -4.88756e-14 -4.83828e-14 -4.76746e-14 -4.56222e-14 -4.32326e-14 -4.10414e-14 -3.88502e-14 -3.60962e-14 -3.20123e-14 -2.73589e-14 -2.24067e-14 -1.74545e-14 -1.2557e-14 -9.94134e-15 -7.52396e-15 -4.89739e-15 -2.27082e-15 -2.74427e-16 4.72397e-16 5.5688e-16 3.65567e-16 1.74253e-16 -1.38341e-18
-1.74856e-13 -1.74852e-13 -1.74847e-13 -1.74842e-13 -1.74837e-13 -1.74832e-13 -1.72292e-13 -1.70056e-13 -1.67302e-13 -1.64547e-13 -1.62543e-13 -1.63172e-13 -1.64414e-13 -1.65894e-13 -1.67374e-13 -1.69235e-13 -1.70053e-13 -1.70949e-13 -1.72361e-13 -1.73774e-13 -1.74935e-13 -1.73584e-13 -1.71522e-13 -1.69248e-13 -1.66973e-13 -1.64305e-13 -1.60588e-13 -1.56714e-13 -1.52677e-13 -1.4864e-13 -1.44285e-13 -1.39558e-13 -1.35244e-13 -1.31163e-13 -1.27081e-13 -1.23152e-13 -1.19181e-13 -1.15356e-13 -1.11687e-13 -1.08019e-13 -1.04531e-13 -1.01969e-13 -9.92178e-14 -9.63492e-14 -9.34806e-14 -9.05688e-14 -8.78593e-14 -8.57552e-14 -8.35652e-14 -8.13752e-14 -8.00968e-14 -7.80891e-14 -7.52737e-14 -7.21314e-14 -6.89892e-14 -6.52646e-14 -6.21107e-14 -5.93531e-14 -5.65259e-14 -5.36987e-14 -5.11612e-14 -5.02577e-14 -4.93517e-14 -4.88589e-14 -4.83662e-14 -4.7658e-14 -4.56056e-14 -4.30535e-14 -4.08623e-14 -3.86711e-14 -3.59172e-14 -3.18332e-14 -2.74245e-14 -2.24724e-14 -1.75202e-14 -1.26226e-14 -1.0007e-14 -7.76094e-15 -5.13437e-15 -2.5078e-15 -5.11408e-16 2.35416e-16 5.45795e-16 3.54482e-16 1.63168e-16 -1.24684e-17
-1.74868e-13 -1.74864e-13 -1.74859e-13 -1.74854e-13 -1.74849e-13 -1.74844e-13 -1.72304e-13 -1.70301e-13 -1.67547e-13 -1.64793e-13 -1.62789e-13 -1.63417e-13 -1.64552e-13 -1.66032e-13 -1.67512e-13 -1.69373e-13 -1.70191e-13 -1.70854e-13 -1.72267e-13 -1.73679e-13 -1.7484e-13 -1.73489e-13 -1.71523e-13 -1.69249e-13 -1.66975e-13 -1.64306e-13 -1.6059e-13 -1.56789e-13 -1.52752e-13 -1.48715e-13 -1.4436e-13 -1.39633e-13 -1.35214e-13 -1.31133e-13 -1.27052e-13 -1.23122e-13 -1.19151e-13 -1.15255e-13 -1.11587e-13 -1.07918e-13 -1.0443e-13 -1.01868e-13 -9.91701e-14 -9.63015e-14 -9.34329e-14 -9.05211e-14 -8.78116e-14 -8.57461e-14 -8.35561e-14 -8.13661e-14 -8.00877e-14 -7.808e-14 -7.54118e-14 -7.22695e-14 -6.91273e-14 -6.54026e-14 -6.22488e-14 -5.95226e-14 -5.66954e-14 -5.38681e-14 -5.13306e-14 -5.04272e-14 -4.93351e-14 -4.88423e-14 -4.83495e-14 -4.76413e-14 -4.55889e-14 -4.28744e-14 -4.06832e-14 -3.8492e-14 -3.57381e-14 -3.16541e-14 -2.74902e-14 -2.2538e-14 -1.75858e-14 -1.26882e-14 -1.00726e-14 -7.99792e-15 -5.37135e-15 -2.74478e-15 -7.48388e-16 -1.56446e-18 5.3471e-16 3.43397e-16 1.52083e-16 -2.35535e-17
-1.7488e-13 -1.74876e-13 -1.74871e-13 -1.74866e-13 -1.74861e-13 -1.74857e-13 -1.72316e-13 -1.70448e-13 -1.67792e-13 -1.65038e-13 -1.63034e-13 -1.63662e-13 -1.64735e-13 -1.6617e-13 -1.6765e-13 -1.69511e-13 -1.70329e-13 -1.70858e-13 -1.72172e-13 -1.73585e-13 -1.74746e-13 -1.73395e-13 -1.71484e-13 -1.6925e-13 -1.66976e-13 -1.64307e-13 -1.60591e-13 -1.56833e-13 -1.52827e-13 -1.4879e-13 -1.44435e-13 -1.39708e-13 -1.35228e-13 -1.31103e-13 -1.27022e-13 -1.23092e-13 -1.19121e-13 -1.15184e-13 -1.11486e-13 -1.07818e-13 -1.0433e-13 -1.01767e-13 -9.91001e-14 -9.62538e-14 -9.33852e-14 -9.04733e-14 -8.77639e-14 -8.57207e-14 -8.3547e-14 -8.1357e-14 -8.00786e-14 -7.80709e-14 -7.54879e-14 -7.24076e-14 -6.92653e-14 -6.55407e-14 -6.23869e-14 -5.96788e-14 -5.68648e-14 -5.40376e-14 -5.15e-14 -5.05966e-14 -4.93967e-14 -4.88257e-14 -4.83329e-14 -4.76247e-14 -4.55723e-14 -4.27637e-14 -4.05041e-14 -3.83129e-14 -3.5559e-14 -3.1475e-14 -2.74528e-14 -2.26036e-14 -1.76515e-14 -1.27539e-14 -1.01383e-14 -8.16279e-15 -5.60833e-15 -2.98176e-15 -9.85369e-16 -2.38545e-16 4.28545e-16 3.32312e-16 1.40998e-16 -3.46385e-17
-1.74892e-13 -1.74888e-13 -1.74883e-13 -1.74878e-13 -1.74873e-13 -1.74869e-13 -1.72328e-13 -1.7046e-13 -1.68038e-13 -1.65283e-13 -1.63279e-13 -1.63907e-13 -1.6498e-13 -1.66308e-13 -1.67788e-13 -1.69649e-13 -1.70467e-13 -1.70996e-13 -1.72078e-13 -1.7349e-13 -1.74652e-13 -1.733e-13 -1.7139e-13 -1.69252e-13 -1.66977e-13 -1.64309e-13 -1.60592e-13 -1.56835e-13 -1.52902e-13 -1.48865e-13 -1.4451e-13 -1.39783e-13 -1.35303e-13 -1.31073e-13 -1.26992e-13 -1.23062e-13 -1.19091e-13 -1.15154e-13 -1.11385e-13 -1.07717e-13 -1.04229e-13 -1.01667e-13 -9.89994e-14 -9.6206e-14 -9.33374e-14 -9.04256e-14 -8.77161e-14 -8.5673e-14 -8.35379e-14 -8.13479e-14 -8.00695e-14 -7.80618e-14 -7.54788e-14 -7.25457e-14 -6.94034e-14 -6.56788e-14 -6.25249e-14 -5.98169e-14 -5.70342e-14 -5.4207e-14 -5.16695e-14 -5.0766e-14 -4.95662e-14 -4.8809e-14 -4.83163e-14 -4.7608e-14 -4.55556e-14 -4.27471e-14 -4.0325e-14 -3.81338e-14 -3.53799e-14 -3.12959e-14 -2.72737e-14 -2.26693e-14 -1.77171e-14 -1.28195e-14 -1.02039e-14 -8.22843e-15 -5.84531e-15 -3.21874e-15 -1.22235e-15 -4.75526e-16 1.91565e-16 3.21227e-16 1.29913e-16 -4.57235e-17
-1.74904e-13 -1.749e-13 -1.74895e-13 -1.7489e-13 -1.74885e-13 -1.74881e-13 -1.7234e-13 -1.70472e-13 -1.68283e-13 -1.65529e-13 -1.63524e-13 -1.64153e-13 -1.65225e-13 -1.66446e-13 -1.67926e-13 -1.69787e-13 -1.70605e-13 -1.71134e-13 -1.71983e-13 -1.73396e-13 -1.74557e-13 -1.73206e-13 -1.71295e-13 -1.69253e-13 -1.66979e-13 -1.6431e-13 -1.60594e-13 -1.56836e-13 -1.52977e-13 -1.4894e-13 -1.44585e-13 -1.39858e-13 -1.35378e-13 -1.31043e-13 -1.26962e-13 -1.23032e-13 -1.19061e-13 -1.15124e-13 -1.11285e-13 -1.07616e-13 -1.04128e-13 -1.01566e-13 -9.88987e-14 -9.61583e-14 -9.32897e-14 -9.03779e-14 -8.76684e-14 -8.56252e-14 -8.35288e-14 -8.13388e-14 -8.00604e-14 -7.80527e-14 -7.54697e-14 -7.26838e-14 -6.95415e-14 -6.58169e-14 -6.2663e-14 -5.9955e-14 -5.72037e-14 -5.43765e-14 -5.18389e-14 -5.09355e-14 -4.97356e-14 -4.87924e-14 -4.82996e-14 -4.75914e-14 -4.5539e-14 -4.27304e-14 -4.01459e-14 -3.79547e-14 -3.52008e-14 -3.11168e-14 -2.70946e-14 -2.27349e-14 -1.77827e-14 -1.28852e-14 -1.02695e-14 -8.29406e-15 -6.0823e-15 -3.45572e-15 -1.45933e-15 -7.12507e-16 -4.54162e-17 3.10142e-16 1.18828e-16 -5.68085e-17
-1.74916e-13 -1.74912e-13 -1.74907e-13 -1.74902e-13 -1.74897e-13 -1.74893e-13 -1.72352e-13 -1.70484e-13 -1.68528e-13 -1.65774e-13 -1.6377e-13 -1.64398e-13 -1.65471e-13 -1.66584e-13 -1.68064e-13 -1.69925e-13 -1.70743e-13 -1.71272e-13 -1.71889e-13 -1.73301e-13 -1.74463e-13 -1.73111e-13 -1.71201e-13 -1.69254e-13 -1.6698e-13 -1.64311e-13 -1.60595e-13 -1.56837e-13 -1.53052e-13 -1.49015e-13 -1.4466e-13 -1.39933e-13 -1.35453e-13 -1.31013e-13 -1.26932e-13 -1.23003e-13 -1.19031e-13 -1.15094e-13 -1.11184e-13 -1.07516e-13 -1.04028e-13 -1.01465e-13 -9.8798e-14 -9.61106e-14 -9.3242e-14 -9.03301e-14 -8.76206e-14 -8.55775e-14 -8.35197e-14 -8.13297e-14 -8.00513e-14 -7.80436e-14 -7.54606e-14 -7.28218e-14 -6.96796e-14 -6.59549e-14 -6.28011e-14 -6.0093e-14 -5.73731e-14 -5.45459e-14 -5.20083e-14 -5.11049e-14 -4.9905e-14 -4.87757e-14 -4.8283e-14 -4.75747e-14 -4.55223e-14 -4.27138e-14 -3.99669e-14 -3.77756e-14 -3.50217e-14 -3.09377e-14 -2.69155e-14 -2.28006e-14 -1.78484e-14 -1.29508e-14 -1.03352e-14 -8.3597e-15 -6.31928e-15 -3.6927e-15 -1.69631e-15 -9.49487e-16 -2.82397e-16 2.99057e-16 1.07743e-16 -6.78935e-17
-1.74929e-13 -1.74924e-13 -1.74919e-13 -1.74914e-13 -1.74909e-13 -1.74905e-13 -1.72364e-13 -1.70496e-13 -1.68629e-13 -1.66019e-13 -1.64015e-13 -1.64643e-13 -1.65716e-13 -1.66788e-13 -1.68202e-13 -1.70063e-13 -1.70881e-13 -1.7141e-13 -1.71939e-13 -1.73207e-13 -1.74368e-13 -1.73017e-13 -1.71107e-13 -1.69196e-13 -1.66981e-13 -1.64313e-13 -1.60596e-13 -1.56839e-13 -1.53081e-13 -1.4909e-13 -1.44735e-13 -1.40007e-13 -1.35528e-13 -1.31048e-13 -1.26902e-13 -1.22973e-13 -1.19001e-13 -1.15064e-13 -1.11127e-13 -1.07415e-13 -1.03927e-13 -1.01365e-13 -9.86973e-14 -9.60299e-14 -9.31942e-14 -9.02824e-14 -8.75729e-14 -8.55298e-14 -8.34866e-14 -8.13206e-14 -8.00422e-14 -7.80345e-14 -7.54515e-14 -7.28685e-14 -6.98176e-14 -6.6093e-14 -6.29392e-14 -6.02311e-14 -5.75231e-14 -5.47153e-14 -5.21778e-14 -5.12743e-14 -5.00745e-14 -4.88746e-14 -4.82663e-14 -4.75581e-14 -4.55057e-14 -4.26972e-14 -3.98886e-14 -3.75965e-14 -3.48426e-14 -3.07586e-14 -2.67364e-14 -2.27142e-14 -1.7914e-14 -1.30164e-14 -1.04008e-14 -8.42534e-15 -6.44987e-15 -3.92968e-15 -1.93329e-15 -1.18647e-15 -5.19378e-16 1.47713e-16 9.66583e-17 -7.89786e-17
-1.74941e-13 -1.74936e-13 -1.74931e-13 -1.74926e-13 -1.74922e-13 -1.74917e-13 -1.72376e-13 -1.70509e-13 -1.68641e-13 -1.66264e-13 -1.6426e-13 -1.64889e-13 -1.65961e-13 -1.67034e-13 -1.6834e-13 -1.70201e-13 -1.71019e-13 -1.71548e-13 -1.72077e-13 -1.73113e-13 -1.74274e-13 -1.72923e-13 -1.71012e-13 -1.69102e-13 -1.66983e-13 -1.64314e-13 -1.60598e-13 -1.5684e-13 -1.53082e-13 -1.49164e-13 -1.4481e-13 -1.40082e-13 -1.35603e-13 -1.31123e-13 -1.26872e-13 -1.22943e-13 -1.18971e-13 -1.15034e-13 -1.11097e-13 -1.07314e-13 -1.03826e-13 -1.01264e-13 -9.85966e-14 -9.59293e-14 -9.31465e-14 -9.02346e-14 -8.75252e-14 -8.5482e-14 -8.34389e-14 -8.13115e-14 -8.00331e-14 -7.80254e-14 -7.54424e-14 -7.28594e-14 -6.99557e-14 -6.62311e-14 -6.30772e-14 -6.03692e-14 -5.76611e-14 -5.48848e-14 -5.23472e-14 -5.14438e-14 -5.02439e-14 -4.90441e-14 -4.82497e-14 -4.75415e-14 -4.5489e-14 -4.26805e-14 -3.9872e-14 -3.74174e-14 -3.46635e-14 -3.05795e-14 -2.65573e-14 -2.25351e-14 -1.79797e-14 -1.30821e-14 -1.04664e-14 -8.49098e-15 -6.51551e-15 -4.16667e-15 -2.17027e-15 -1.42345e-15 -7.56358e-16 -8.92679e-17 8.55733e-17 -9.00636e-17
-1.74953e-13 -1.74948e-13 -1.74943e-13 -1.74938e-13 -1.74934e-13 -1.74929e-13 -1.72388e-13 -1.70521e-13 -1.68653e-13 -1.6651e-13 -1.64506e-13 -1.65134e-13 -1.66206e-13 -1.67279e-13 -1.68478e-13 -1.70339e-13 -1.71157e-13 -1.71686e-13 -1.72215e-13 -1.73018e-13 -1.74179e-13 -1.72828e-13 -1.70918e-13 -1.69007e-13 -1.66984e-13 -1.64315e-13 -1.60599e-13 -1.56841e-13 -1.53084e-13 -1.49239e-13 -1.44885e-13 -1.40157e-13 -1.35678e-13 -1.31198e-13 -1.26842e-13 -1.22913e-13 -1.18942e-13 -1.15004e-13 -1.11067e-13 -1.07214e-13 -1.03726e-13 -1.01163e-13 -9.8496e-14 -9.58286e-14 -9.30988e-14 -9.01869e-14 -8.74774e-14 -8.54343e-14 -8.33911e-14 -8.13024e-14 -8.0024e-14 -7.80163e-14 -7.54333e-14 -7.28503e-14 -7.00938e-14 -6.63692e-14 -6.32153e-14 -6.05073e-14 -5.77992e-14 -5.50542e-14 -5.25166e-14 -5.16132e-14 -5.04134e-14 -4.92135e-14 -4.8233e-14 -4.75248e-14 -4.54724e-14 -4.26639e-14 -3.98553e-14 -3.72383e-14 -3.44844e-14 -3.04005e-14 -2.63783e-14 -2.23561e-14 -1.80453e-14 -1.31477e-14 -1.05321e-14 -8.55662e-15 -6.58115e-15 -4.40365e-15 -2.40725e-15 -1.66043e-15 -9.93339e-16 -3.26249e-16 7.44882e-17 -1.01149e-16
-1.74965e-13 -1.7496e-13 -1.74955e-13 -1.7495e-13 -1.74946e-13 -1.74941e-13 -1.72401e-13 -1.70533e-13 -1.68665e-13 -1.66755e-13 -1.64751e-13 -1.65379e-13 -1.66452e-13 -1.67524e-13 -1.68616e-13 -1.70477e-13 -1.71295e-13 -1.71824e-13 -1.72353e-13 -1.72924e-13 -1.74085e-13 -1.72734e-13 -1.70823e-13 -1.68913e-13 -1.66985e-13 -1.64317e-13 -1.606e-13 -1.56843e-13 -1.53085e-13 -1.49314e-13 -1.4496e-13 -1.40232e-13 -1.35753e-13 -1.31273e-13 -1.26812e-13 -1.22883e-13 -1.18912e-13 -1.14975e-13 -1.11037e-13 -1.07113e-13 -1.03625e-13 -1.01063e-13 -9.83953e-14 -9.57279e-14 -9.3051e-14 -9.01392e-14 -8.74297e-14 -8.53865e-14 -8.33434e-14 -8.12933e-14 -8.00149e-14 -7.80072e-14 -7.54242e-14 -7.28412e-14 -7.02319e-14 -6.65072e-14 -6.33534e-14 -6.06454e-14 -5.79373e-14 -5.52236e-14 -5.26861e-14 -5.17827e-14 -5.05828e-14 -4.93829e-14 -4.82164e-14 -4.75082e-14 -4.54558e-14 -4.26472e-14 -3.98387e-14 -3.70593e-14 -3.43053e-14 -3.02214e-14 -2.61992e-14 -2.2177e-14 -1.81109e-14 -1.32133e-14 -1.05977e-14 -8.62226e-15 -6.64678e-15 -4.64063e-15 -2.64423e-15 -1.89741e-15 -1.23032e-15 -5.63229e-16 6.34032e-17 -1.12234e-16
-1.74977e-13 -1.74972e-13 -1.74967e-13 -1.74962e-13 -1.74958e-13 -1.74953e-13 -1.72413e-13 -1.70545e-13 -1.68677e-13 -1.66809e-13 -1.64996e-13 -1.65625e-13 -1.66697e-13 -1.6777e-13 -1.68842e-13 -1.70615e-13 -1.71433e-13 -1.71962e-13 -1.72491e-13 -1.7302e-13 -1.73991e-13 -1.72639e-13 -1.70729e-13 -1.68819e-13 -1.66908e-13 -1.64318e-13 -1.60602e-13 -1.56844e-13 -1.53086e-13 -1.49329e-13 -1.45035e-13 -1.40307e-13 -1.35828e-13 -1.31348e-13 -1.26868e-13 -1.22853e-13 -1.18882e-13 -1.14945e-13 -1.11007e-13 -1.0707e-13 -1.03524e-13 -1.00962e-13 -9.82946e-14 -9.56272e-14 -9.29598e-14 -9.00914e-14 -8.7382e-14 -8.53388e-14 -8.32957e-14 -8.12525e-14 -8.00058e-14 -7.79981e-14 -7.54151e-14 -7.28321e-14 -7.02491e-14 -6.66453e-14 -6.34915e-14 -6.07834e-14 -5.80754e-14 -5.53673e-14 -5.28555e-14 -5.19521e-14 -5.07522e-14 -4.95524e-14 -4.83525e-14 -4.74915e-14 -4.54391e-14 -4.26306e-14 -3.9822e-14 -3.70135e-14 -3.41262e-14 -3.00423e-14 -2.60201e-14 -2.19979e-14 -1.79757e-14 -1.3279e-14 -1.06634e-14 -8.68789e-15 -6.71242e-15 -4.73695e-15 -2.88122e-15 -2.13439e-15 -1.4673e-15 -8.0021e-16 -1.3312e-16 -1.23319e-16
-1.74989e-13 -1.74984e-13 -1.74979e-13 -1.74974e-13 -1.7497e-13 -1.74965e-13 -1.72425e-13 -1.70557e-13 -1.68689e-13 -1.66821e-13 -1.65241e-13 -1.6587e-13 -1.66942e-13 -1.68015e-13 -1.69087e-13 -1.70753e-13 -1.71571e-13 -1.721e-13 -1.72629e-13 -1.73158e-13 -1.73896e-13 -1.72545e-13 -1.70634e-13 -1.68724e-13 -1.66814e-13 -1.6432e-13 -1.60603e-13 -1.56845e-13 -1.53088e-13 -1.4933e-13 -1.4511e-13 -1.40382e-13 -1.35902e-13 -1.31423e-13 -1.26943e-13 -1.22823e-13 -1.18852e-13 -1.14915e-13 -1.10978e-13 -1.0704e-13 -1.03423e-13 -1.00861e-13 -9.81939e-14 -9.55265e-14 -9.28591e-14 -9.00437e-14 -8.73342e-14 -8.52911e-14 -8.32479e-14 -8.12048e-14 -7.99967e-14 -7.7989e-14 -7.5406e-14 -7.2823e-14 -7.024e-14 -6.67834e-14 -6.36296e-14 -6.09215e-14 -5.82135e-14 -5.55054e-14 -5.3025e-14 -5.21215e-14 -5.09217e-14 -4.97218e-14 -4.85219e-14 -4.74749e-14 -4.54225e-14 -4.26139e-14 -3.98054e-14 -3.69969e-14 -3.39471e-14 -2.98632e-14 -2.5841e-14 -2.18188e-14 -1.77966e-14 -1.33446e-14 -1.0729e-14 -8.75353e-15 -6.77806e-15 -4.80259e-15 -3.1182e-15 -2.37137e-15 -1.70428e-15 -1.03719e-15 -3.701e-16 -1.34404e-16