# vtk DataFile Version 2.0
track0
ASCII
DATASET POLYDATA
POINTS 1720 double
-1.001 -0.05 0.0011
-1.0008 -0.05 0.0011
-1.0006 -0.05 0.0011
-1.0004 -0.05 0.0011
-1.0002 -0.05 0.0011
-1 -0.05 0.0011
-0.8 -0.05 0.0011
-0.6 -0.05 0.0011
-0.4 -0.05 0.0011
-0.2 -0.05 0.0011
0 -0.05 0.0011
0.2 -0.05 0.0011
0.4 -0.05 0.0011
0.6 -0.05 0.0011
0.8 -0.05 0.0011
1 -0.05 0.0011
1.2 -0.05 0.0011
1.4 -0.05 0.0011
1.6 -0.05 0.0011
1.8 -0.05 0.0011
2 -0.05 0.0011
2.2 -0.05 0.0011
2.4 -0.05 0.0011
2.6 -0.05 0.0011
2.8 -0.05 0.0011
3 -0.05 0.0011
3.2 -0.05 0.0011
3.4 -0.05 0.0011
3.6 -0.05 0.0011
3.8 -0.05 0.0011
4 -0.05 0.0011
4.2 -0.05 0.0011
4.4 -0.05 0.0011
4.6 -0.05 0.0011
4.8 -0.05 0.0011
5 -0.05 0.0011
5.2 -0.05 0.0011
5.4 -0.05 0.0011
5.6 -0.05 0.0011
5.8 -0.05 0.0011
6 -0.05 0.0011
6.2 -0.05 0.0011
6.4 -0.05 0.0011
6.6 -0.05 0.0011
6.8 -0.05 0.0011
7 -0.05 0.0011
7.2 -0.05 0.0011
7.4 -0.05 0.0011
7.6 -0.05 0.0011
7.8 -0.05 0.0011
8 -0.05 0.0011
8.2 -0.05 0.0011
8.4 -0.05 0.0011
8.6 -0.05 0.0011
8.8 -0.05 0.0011
9 -0.05 0.0011
9.2 -0.05 0.0011
9.4 -0.05 0.0011
9.6 -0.05 0.0011
9.8 -0.05 0.0011
10 -0.05 0.0011
10.2 -0.05 0.0011
10.4 -0.05 0.0011
10.6 -0.05 0.0011
10.8 -0.05 0.0011
11 -0.05 0.0011
11.2 -0.05 0.0011
11.4 -0.05 0.0011
11.6 -0.05 0.0011
11.8 -0.05 0.0011
12 -0.05 0.0011
12.2 -0.05 0.0011
12.4 -0.05 0.0011
12.6 -0.05 0.0011
12.8 -0.05 0.0011
13 -0.05 0.0011
13.2 -0.05 0.0011
13.4 -0.05 0.0011
13.6 -0.05 0.0011
13.8 -0.05 0.0011
14 -0.05 0.0011
14.2 -0.05 0.0011
14.4 -0.05 0.0011
14.6 -0.05 0.0011
14.8 -0.05 0.0011
15 -0.05 0.0011
-1.001 -0.05 0.0537316
-1.0008 -0.05 0.0537316
-1.0006 -0.05 0.0537316
-1.0004 -0.05 0.0537316
-1.0002 -0.05 0.0537316
-1 -0.05 0.0537316
-0.8 -0.05 0.0537316
-0.6 -0.05 0.0537316
-0.4 -0.05 0.0537316
-0.2 -0.05 0.0537316
0 -0.05 0.0537316
0.2 -0.05 0.0537316
0.4 -0.05 0.0537316
0.6 -0.05 0.0537316
0.8 -0.05 0.0537316
1 -0.05 0.0537316
1.2 -0.05 0.0537316
1.4 -0.05 0.0537316
1.6 -0.05 0.0537316
1.8 -0.05 0.0537316
2 -0.05 0.0537316
2.2 -0.05 0.0537316
2.4 -0.05 0.0537316
2.6 -0.05 0.0537316
2.8 -0.05 0.0537316
3 -0.05 0.0537316
3.2 -0.05 0.0537316
3.4 -0.05 0.0537316
3.6 -0.05 0.0537316
3.8 -0.05 0.0537316
4 -0.05 0.0537316
4.2 -0.05 0.0537316
4.4 -0.05 0.0537316
4.6 -0.05 0.0537316
4.8 -0.05 0.0537316
5 -0.05 0.0537316
5.2 -0.05 0.0537316
5.4 -0.05 0.0537316
5.6 -0.05 0.0537316
5.8 -0.05 0.0537316
6 -0.05 0.0537316
6.2 -0.05 0.0537316
6.4 -0.05 0.0537316
6.6 -0.05 0.0537316
6.8 -0.05 0.0537316
7 -0.05 0.0537316
7.2 -0.05 0.0537316
7.4 -0.05 0.0537316
7.6 -0.05 0.0537316
7.8 -0.05 0.0537316
8 -0.05 0.0537316
8.2 -0.05 0.0537316
8.4 -0.05 0.0537316
8.6 -0.05 0.0537316
8.8 -0.05 0.0537316
9 -0.05 0.0537316
9.2 -0.05 0.0537316
9.4 -0.05 0.0537316
9.6 -0.05 0.0537316
9.8 -0.05 0.0537316
10 -0.05 0.0537316
10.2 -0.05 0.0537316
10.4 -0.05 0.0537316
10.6 -0.05 0.0537316
10.8 -0.05 0.0537316
11 -0.05 0.0537316
11.2 -0.05 0.0537316
11.4 -0.05 0.0537316
11.6 -0.05 0.0537316
11.8 -0.05 0.0537316
12 -0.05 0.0537316
12.2 -0.05 0.0537316
12.4 -0.05 0.0537316
12.6 -0.05 0.0537316
12.8 -0.05 0.0537316
13 -0.05 0.0537316
13.2 -0.05 0.0537316
13.4 -0.05 0.0537316
13.6 -0.05 0.0537316
13.8 -0.05 0.0537316
14 -0.05 0.0537316
14.2 -0.05 0.0537316
14.4 -0.05 0.0537316
14.6 -0.05 0.0537316
14.8 -0.05 0.0537316
15 -0.05 0.0537316
-1.001 -0.05 0.106363
-1.0008 -0.05 0.106363
-1.0006 -0.05 0.106363
-1.0004 -0.05 0.106363
-1.0002 -0.05 0.106363
-1 -0.05 0.106363
-0.8 -0.05 0.106363
-0.6 -0.05 0.106363
-0.4 -0.05 0.106363
-0.2 -0.05 0.106363
0 -0.05 0.106363
0.2 -0.05 0.106363
0.4 -0.05 0.106363
0.6 -0.05 0.106363
0.8 -0.05 0.106363
1 -0.05 0.106363
1.2 -0.05 0.106363
1.4 -0.05 0.106363
1.6 -0.05 0.106363
1.8 -0.05 0.106363
2 -0.05 0.106363
2.2 -0.05 0.106363
2.4 -0.05 0.106363
2.6 -0.05 0.106363
2.8 -0.05 0.106363
3 -0.05 0.106363
3.2 -0.05 0.106363
3.4 -0.05 0.106363
3.6 -0.05 0.106363
3.8 -0.05 0.106363
4 -0.05 0.106363
4.2 -0.05 0.106363
4.4 -0.05 0.106363
4.6 -0.05 0.106363
4.8 -0.05 0.106363
5 -0.05 0.106363
5.2 -0.05 0.106363
5.4 -0.05 0.106363
5.6 -0.05 0.106363
5.8 -0.05 0.106363
6 -0.05 0.106363
6.2 -0.05 0.106363
6.4 -0.05 0.106363
6.6 -0.05 0.106363
6.8 -0.05 0.106363
7 -0.05 0.106363
7.2 -0.05 0.106363
7.4 -0.05 0.106363
7.6 -0.05 0.106363
7.8 -0.05 0.106363
8 -0.05 0.106363
8.2 -0.05 0.106363
8.4 -0.05 0.106363
8.6 -0.05 0.106363
8.8 -0.05 0.106363
9 -0.05 0.106363
9.2 -0.05 0.106363
9.4 -0.05 0.106363
9.6 -0.05 0.106363
9.8 -0.05 0.106363
10 -0.05 0.106363
10.2 -0.05 0.106363
10.4 -0.05 0.106363
10.6 -0.05 0.106363
10.8 -0.05 0.106363
11 -0.05 0.106363
11.2 -0.05 0.106363
11.4 -0.05 0.106363
11.6 -0.05 0.106363
11.8 -0.05 0.106363
12 -0.05 0.106363
12.2 -0.05 0.106363
12.4 -0.05 0.106363
12.6 -0.05 0.106363
12.8 -0.05 0.106363
13 -0.05 0.106363
13.2 -0.05 0.106363
13.4 -0.05 0.106363
13.6 -0.05 0.106363
13.8 -0.05 0.106363
14 -0.05 0.106363
14.2 -0.05 0.106363
14.4 -0.05 0.106363
14.6 -0.05 0.106363
14.8 -0.05 0.106363
15 -0.05 0.106363
-1.001 -0.05 0.158995
-1.0008 -0.05 0.158995
-1.0006 -0.05 0.158995
-1.0004 -0.05 0.158995
-1.0002 -0.05 0.158995
-1 -0.05 0.158995
-0.8 -0.05 0.158995
-0.6 -0.05 0.158995
-0.4 -0.05 0.158995
-0.2 -0.05 0.158995
0 -0.05 0.158995
0.2 -0.05 0.158995
0.4 -0.05 0.158995
0.6 -0.05 0.158995
0.8 -0.05 0.158995
1 -0.05 0.158995
1.2 -0.05 0.158995
1.4 -0.05 0.158995
1.6 -0.05 0.158995
1.8 -0.05 0.158995
2 -0.05 0.158995
2.2 -0.05 0.158995
2.4 -0.05 0.158995
2.6 -0.05 0.158995
2.8 -0.05 0.158995
3 -0.05 0.158995
3.2 -0.05 0.158995
3.4 -0.05 0.158995
3.6 -0.05 0.158995
3.8 -0.05 0.158995
4 -0.05 0.158995
4.2 -0.05 0.158995
4.4 -0.05 0.158995
4.6 -0.05 0.158995
4.8 -0.05 0.158995
5 -0.05 0.158995
5.2 -0.05 0.158995
5.4 -0.05 0.158995
5.6 -0.05 0.158995
5.8 -0.05 0.158995
6 -0.05 0.158995
6.2 -0.05 0.158995
6.4 -0.05 0.158995
6.6 -0.05 0.158995
6.8 -0.05 0.158995
7 -0.05 0.158995
7.2 -0.05 0.158995
7.4 -0.05 0.158995
7.6 -0.05 0.158995
7.8 -0.05 0.158995
8 -0.05 0.158995
8.2 -0.05 0.158995
8.4 -0.05 0.158995
8.6 -0.05 0.158995
8.8 -0.05 0.158995
9 -0.05 0.158995
9.2 -0.05 0.158995
9.4 -0.05 0.158995
9.6 -0.05 0.158995
9.8 -0.05 0.158995
10 -0.05 0.158995
10.2 -0.05 0.158995
10.4 -0.05 0.158995
10.6 -0.05 0.158995
10.8 -0.05 0.158995
11 -0.05 0.158995
11.2 -0.05 0.158995
11.4 -0.05 0.158995
11.6 -0.05 0.158995
11.8 -0.05 0.158995
12 -0.05 0.158995
12.2 -0.05 0.158995
12.4 -0.05 0.158995
12.6 -0.05 0.158995
12.8 -0.05 0.158995
13 -0.05 0.158995
13.2 -0.05 0.158995
13.4 -0.05 0.158995
13.6 -0.05 0.158995
13.8 -0.05 0.158995
14 -0.05 0.158995
14.2 -0.05 0.158995
14.4 -0.05 0.158995
14.6 -0.05 0.158995
14.8 -0.05 0.158995
15 -0.05 0.158995
-1.001 -0.05 0.211626
-1.0008 -0.05 0.211626
-1.0006 -0.05 0.211626
-1.0004 -0.05 0.211626
-1.0002 -0.05 0.211626
-1 -0.05 0.211626
-0.8 -0.05 0.211626
-0.6 -0.05 0.211626
-0.4 -0.05 0.211626
-0.2 -0.05 0.211626
0 -0.05 0.211626
0.2 -0.05 0.211626
0.4 -0.05 0.211626
0.6 -0.05 0.211626
0.8 -0.05 0.211626
1 -0.05 0.211626
1.2 -0.05 0.211626
1.4 -0.05 0.211626
1.6 -0.05 0.211626
1.8 -0.05 0.211626
2 -0.05 0.211626
2.2 -0.05 0.211626
2.4 -0.05 0.211626
2.6 -0.05 0.211626
2.8 -0.05 0.211626
3 -0.05 0.211626
3.2 -0.05 0.211626
3.4 -0.05 0.211626
3.6 -0.05 0.211626
3.8 -0.05 0.211626
4 -0.05 0.211626
4.2 -0.05 0.211626
4.4 -0.05 0.211626
4.6 -0.05 0.211626
4.8 -0.05 0.211626
5 -0.05 0.211626
5.2 -0.05 0.211626
5.4 -0.05 0.211626
5.6 -0.05 0.211626
5.8 -0.05 0.211626
6 -0.05 0.211626
6.2 -0.05 0.211626
6.4 -0.05 0.211626
6.6 -0.05 0.211626
6.8 -0.05 0.211626
7 -0.05 0.211626
7.2 -0.05 0.211626
7.4 -0.05 0.211626
7.6 -0.05 0.211626
7.8 -0.05 0.211626
8 -0.05 0.211626
8.2 -0.05 0.211626
8.4 -0.05 0.211626
8.6 -0.05 0.211626
8.8 -0.05 0.211626
9 -0.05 0.211626
9.2 -0.05 0.211626
9.4 -0.05 0.211626
9.6 -0.05 0.211626
9.8 -0.05 0.211626
10 -0.05 0.211626
10.2 -0.05 0.211626
10.4 -0.05 0.211626
10.6 -0.05 0.211626
10.8 -0.05 0.211626
11 -0.05 0.211626
11.2 -0.05 0.211626
11.4 -0.05 0.211626
11.6 -0.05 0.211626
11.8 -0.05 0.211626
12 -0.05 0.211626
12.2 -0.05 0.211626
12.4 -0.05 0.211626
12.6 -0.05 0.211626
12.8 -0.05 0.211626
13 -0.05 0.211626
13.2 -0.05 0.211626
13.4 -0.05 0.211626
13.6 -0.05 0.211626
13.8 -0.05 0.211626
14 -0.05 0.211626
14.2 -0.05 0.211626
14.4 -0.05 0.211626
14.6 -0.05 0.211626
14.8 -0.05 0.211626
15 -0.05 0.211626
-1.001 -0.05 0.264258
-1.0008 -0.05 0.264258
-1.0006 -0.05 0.264258
-1.0004 -0.05 0.264258
-1.0002 -0.05 0.264258
-1 -0.05 0.264258
-0.8 -0.05 0.264258
-0.6 -0.05 0.264258
-0.4 -0.05 0.264258
-0.2 -0.05 0.264258
0 -0.05 0.264258
0.2 -0.05 0.264258
0.4 -0.05 0.264258
0.6 -0.05 0.264258
0.8 -0.05 0.264258
1 -0.05 0.264258
1.2 -0.05 0.264258
1.4 -0.05 0.264258
1.6 -0.05 0.264258
1.8 -0.05 0.264258
2 -0.05 0.264258
2.2 -0.05 0.264258
2.4 -0.05 0.264258
2.6 -0.05 0.264258
2.8 -0.05 0.264258
3 -0.05 0.264258
3.2 -0.05 0.264258
3.4 -0.05 0.264258
3.6 -0.05 0.264258
3.8 -0.05 0.264258
4 -0.05 0.264258
4.2 -0.05 0.264258
4.4 -0.05 0.264258
4.6 -0.05 0.264258
4.8 -0.05 0.264258
5 -0.05 0.264258
5.2 -0.05 0.264258
5.4 -0.05 0.264258
5.6 -0.05 0.264258
5.8 -0.05 0.264258
6 -0.05 0.264258
6.2 -0.05 0.264258
6.4 -0.05 0.264258
6.6 -0.05 0.264258
6.8 -0.05 0.264258
7 -0.05 0.264258
7.2 -0.05 0.264258
7.4 -0.05 0.264258
7.6 -0.05 0.264258
7.8 -0.05 0.264258
8 -0.05 0.264258
8.2 -0.05 0.264258
8.4 -0.05 0.264258
8.6 -0.05 0.264258
8.8 -0.05 0.264258
9 -0.05 0.264258
9.2 -0.05 0.264258
9.4 -0.05 0.264258
9.6 -0.05 0.264258
9.8 -0.05 0.264258
10 -0.05 0.264258
10.2 -0.05 0.264258
10.4 -0.05 0.264258
10.6 -0.05 0.264258
10.8 -0.05 0.264258
11 -0.05 0.264258
11.2 -0.05 0.264258
11.4 -0.05 0.264258
11.6 -0.05 0.264258
11.8 -0.05 0.264258
12 -0.05 0.264258
12.2 -0.05 0.264258
12.4 -0.05 0.264258
12.6 -0.05 0.264258
12.8 -0.05 0.264258
13 -0.05 0.264258
13.2 -0.05 0.264258
13.4 -0.05 0.264258
13.6 -0.05 0.264258
13.8 -0.05 0.264258
14 -0.05 0.264258
14.2 -0.05 0.264258
14.4 -0.05 0.264258
14.6 -0.05 0.264258
14.8 -0.05 0.264258
15 -0.05 0.264258
-1.001 -0.05 0.316889
-1.0008 -0.05 0.316889
-1.0006 -0.05 0.316889
-1.0004 -0.05 0.316889
[...]
POINT_DATA 1720
 FIELD attributes 1
U 3 1720 float
20 	3.50638e-18 	1.77068e-18 20 	2.93783e-18 	1.59116e-18 20 	2.36928e-18 	1.41164e-18 20 	1.80073e-18 	1.23212e-18 20 	1.23218e-18 	1.0526e-18 20 	6.63631e-19 	8.73084e-19 20 	1.83556e-18 	2.59009e-18 20 	1.83556e-18 	2.59009e-18 20 	1.83556e-18 	2.59009e-18 20 	1.83556e-18 	2.59009e-18 20 	3.57139e-19 	1.49245e-18 20 	2.34096e-19 	2.99799e-18 20 	2.34096e-19 	2.99799e-18 20 	2.34096e-19 	2.99799e-18 20 	2.34096e-19 	2.99799e-18 20 	2.06041e-19 	1.15351e-18 20 	5.90238e-19 	1.71776e-18 20 	5.90238e-19 	1.71776e-18 20 	5.90238e-19 	1.71776e-18 20 	5.90238e-19 	1.71776e-18 20 	-2.29426e-20 	2.47077e-19 20 	-5.14177e-19 	-1.20014e-18 20 	-5.14177e-19 	-1.20014e-18 20 	-5.14177e-19 	-1.20014e-18 20 	-5.14177e-19 	-1.20014e-18 20 	-2.87974e-19 	-1.20842e-20 20 	1.27919e-19 	5.98608e-19 20 	1.27919e-19 	5.98608e-19 20 	1.27919e-19 	5.98608e-19 20 	1.27919e-19 	5.98608e-19 20 	-7.97013e-20 	6.43313e-20 20 	7.86516e-19 	1.12793e-18 20 	7.86516e-19 	1.12793e-18 20 	7.86516e-19 	1.12793e-18 20 	7.86516e-19 	1.12793e-18 20 	4.85938e-19 	-2.12153e-19 20 	1.93578e-18 	-3.41085e-19 20 	1.93578e-18 	-3.41085e-19 20 	1.93578e-18 	-3.41085e-19 20 	1.93578e-18 	-3.41085e-19 20 	3.9344e-19 	-2.89559e-19 20 	9.71591e-19 	6.4665e-19 20 	9.71591e-19 	6.4665e-19 20 	9.71591e-19 	6.4665e-19 20 	9.71591e-19 	6.4665e-19 20 	4.04003e-19 	3.55188e-19 20 	8.80071e-19 	2.25151e-18 20 	8.80071e-19 	2.25151e-18 20 	8.80071e-19 	2.25151e-18 20 	8.80071e-19 	2.25151e-18 20 	7.34447e-19 	4.30207e-19 20 	1.45159e-18 	1.28074e-18 20 	1.45159e-18 	1.28074e-18 20 	1.45159e-18 	1.28074e-18 20 	1.45159e-18 	1.28074e-18 20 	6.98126e-19 	7.76704e-19 20 	-1.11786e-18 	3.71304e-18 20 	-1.11786e-18 	3.71304e-18 20 	-1.11786e-18 	3.71304e-18 20 	-1.11786e-18 	3.71304e-18 20 	3.54391e-19 	1.32887e-18 20 	-1.6971e-18 	1.67587e-18 20 	-1.6971e-18 	1.67587e-18 20 	-1.6971e-18 	1.67587e-18 20 	-1.6971e-18 	1.67587e-18 20 	-7.1765e-20 	6.36914e-19 20 	-2.60097e-18 	4.68235e-20 20 	-2.60097e-18 	4.68235e-20 20 	-2.60097e-18 	4.68235e-20 20 	-2.60097e-18 	4.68235e-20 20 	-2.43253e-19 	-2.83979e-19 20 	-1.90808e-18 	-1.20532e-18 20 	-1.90808e-18 	-1.20532e-18 20 	-1.90808e-18 	-1.20532e-18 20 	-1.90808e-18 	-1.20532e-18 20 	-8.83827e-19 	3.93125e-20 20 	-4.29014e-18 	3.49477e-19 20 	-4.29014e-18 	3.49477e-19 20 	-4.29014e-18 	3.49477e-19 20 	-4.29014e-18 	3.49477e-19 20 	-1.29543e-18 	7.05385e-19 20 	-1.67105e-16 	6.90376e-17 20 	-3.32131e-16 	1.3741e-16 20 	-4.97156e-16 	2.05782e-16 20 	-6.62182e-16 	2.74154e-16 20 	-7.98817e-16 	3.3089e-16
20 	3.5259e-17 	4.3545e-17 20 	3.46905e-17 	4.33655e-17 20 	3.41219e-17 	4.3186e-17 20 	3.35534e-17 	4.30065e-17 20 	3.29848e-17 	4.2827e-17 20 	3.24163e-17 	4.26474e-17 20 	8.4646e-17 	1.22794e-16 20 	8.4646e-17 	1.22794e-16 20 	8.4646e-17 	1.22794e-16 20 	8.4646e-17 	1.22794e-16 20 	1.74451e-17 	7.29014e-17 20 	1.13397e-17 	1.40186e-16 20 	1.13397e-17 	1.40186e-16 20 	1.13397e-17 	1.40186e-16 20 	1.13397e-17 	1.40186e-16 20 	1.00644e-17 	5.63452e-17 20 	2.67512e-17 	7.89183e-17 20 	2.67512e-17 	7.89183e-17 20 	2.67512e-17 	7.89183e-17 20 	2.67512e-17 	7.89183e-17 20 	-1.12067e-18 	1.20689e-17 20 	-2.43486e-17 	-5.45929e-17 20 	-2.43486e-17 	-5.45929e-17 20 	-2.43486e-17 	-5.45929e-17 20 	-2.43486e-17 	-5.45929e-17 20 	-1.40666e-17 	-5.90276e-19 20 	5.54415e-18 	2.74277e-17 20 	5.54415e-18 	2.74277e-17 20 	5.54415e-18 	2.74277e-17 20 	5.54415e-18 	2.74277e-17 20 	-3.89316e-18 	3.14238e-18 20 	3.73992e-17 	5.05497e-17 20 	3.73992e-17 	5.05497e-17 20 	3.73992e-17 	5.05497e-17 20 	3.73992e-17 	5.05497e-17 20 	2.37365e-17 	-1.0363e-17 20 	8.93246e-17 	-1.64861e-17 20 	8.93246e-17 	-1.64861e-17 20 	8.93246e-17 	-1.64861e-17 20 	8.93246e-17 	-1.64861e-17 20 	1.92183e-17 	-1.41441e-17 20 	4.55337e-17 	3.05981e-17 20 	4.55337e-17 	3.05981e-17 20 	4.55337e-17 	3.05981e-17 20 	4.55337e-17 	3.05981e-17 20 	1.97343e-17 	1.73498e-17 20 	4.24947e-17 	1.03801e-16 20 	4.24947e-17 	1.03801e-16 20 	4.24947e-17 	1.03801e-16 20 	4.24947e-17 	1.03801e-16 20 	3.58754e-17 	2.10143e-17 20 	6.83498e-17 	6.08504e-17 20 	6.83498e-17 	6.08504e-17 20 	6.83498e-17 	6.08504e-17 20 	6.83498e-17 	6.08504e-17 20 	3.41013e-17 	3.79396e-17 20 	-4.96096e-17 	1.73283e-16 20 	-4.96096e-17 	1.73283e-16 20 	-4.96096e-17 	1.73283e-16 20 	-4.96096e-17 	1.73283e-16 20 	1.73109e-17 	6.49109e-17 20 	-7.73844e-17 	7.83366e-17 20 	-7.73844e-17 	7.83366e-17 20 	-7.73844e-17 	7.83366e-17 20 	-7.73844e-17 	7.83366e-17 20 	-3.5055e-18 	3.11113e-17 20 	-1.19051e-16 	1.16498e-18 20 	-1.19051e-16 	1.16498e-18 20 	-1.19051e-16 	1.16498e-18 20 	-1.19051e-16 	1.16498e-18 20 	-1.18822e-17 	-1.38715e-17 20 	-8.97291e-17 	-5.46541e-17 20 	-8.97291e-17 	-5.46541e-17 20 	-8.97291e-17 	-5.46541e-17 20 	-8.97291e-17 	-5.46541e-17 20 	-4.31722e-17 	1.92029e-18 20 	-1.99401e-16 	1.82782e-17 20 	-1.99401e-16 	1.82782e-17 20 	-1.99401e-16 	1.82782e-17 20 	-1.99401e-16 	1.82782e-17 20 	-6.32777e-17 	3.44559e-17 20 	-2.60231e-16 	9.97184e-17 20 	-4.25256e-16 	1.68091e-16 20 	-5.90282e-16 	2.36463e-16 20 	-7.55307e-16 	3.04835e-16 20 	-8.08417e-16 	3.46467e-16
20 	6.70117e-17 	8.53194e-17 20 	6.64432e-17 	8.51399e-17 20 	6.58746e-17 	8.49603e-17 20 	6.53061e-17 	8.47808e-17 20 	6.47375e-17 	8.46013e-17 20 	6.4169e-17 	8.44218e-17 20 	1.01734e-16 	1.94203e-16 20 	1.01734e-16 	1.94203e-16 20 	1.01734e-16 	1.94203e-16 20 	1.01734e-16 	1.94203e-16 20 	3.45331e-17 	1.4431e-16 20 	2.11981e-17 	1.95377e-16 20 	2.11981e-17 	1.95377e-16 20 	2.11981e-17 	1.95377e-16 20 	2.11981e-17 	1.95377e-16 20 	1.99228e-17 	1.11537e-16 20 	2.56534e-17 	9.07402e-17 20 	2.56534e-17 	9.07402e-17 20 	2.56534e-17 	9.07402e-17 20 	2.56534e-17 	9.07402e-17 20 	-2.2184e-18 	2.38908e-17 20 	-3.81273e-17 	-5.51711e-17 20 	-3.81273e-17 	-5.51711e-17 20 	-3.81273e-17 	-5.51711e-17 20 	-3.81273e-17 	-5.51711e-17 20 	-2.78453e-17 	-1.16847e-18 20 	1.73068e-18 	3.05057e-17 20 	1.73068e-18 	3.05057e-17 20 	1.73068e-18 	3.05057e-17 20 	1.73068e-18 	3.05057e-17 20 	-7.70662e-18 	6.22043e-18 20 	6.06498e-17 	4.03989e-17 20 	6.06498e-17 	4.03989e-17 20 	6.06498e-17 	4.03989e-17 20 	6.06498e-17 	4.03989e-17 20 	4.69871e-17 	-2.05139e-17 20 	1.08149e-16 	-3.03406e-17 20 	1.08149e-16 	-3.03406e-17 20 	1.08149e-16 	-3.03406e-17 20 	1.08149e-16 	-3.03406e-17 20 	3.80432e-17 	-2.79986e-17 20 	6.4864e-17 	4.75928e-17 20 	6.4864e-17 	4.75928e-17 20 	6.4864e-17 	4.75928e-17 20 	6.4864e-17 	4.75928e-17 20 	3.90646e-17 	3.43445e-17 20 	7.76357e-17 	1.24385e-16 20 	7.76357e-17 	1.24385e-16 20 	7.76357e-17 	1.24385e-16 20 	7.76357e-17 	1.24385e-16 20 	7.10164e-17 	4.15983e-17 20 	1.01753e-16 	9.80132e-17 20 	1.01753e-16 	9.80132e-17 20 	1.01753e-16 	9.80132e-17 20 	1.01753e-16 	9.80132e-17 20 	6.75045e-17 	7.51024e-17 20 	-3.2653e-17 	2.36865e-16 20 	-3.2653e-17 	2.36865e-16 20 	-3.2653e-17 	2.36865e-16 20 	-3.2653e-17 	2.36865e-16 20 	3.42674e-17 	1.28493e-16 20 	-8.08182e-17 	1.08811e-16 20 	-8.08182e-17 	1.08811e-16 20 	-8.08182e-17 	1.08811e-16 20 	-8.08182e-17 	1.08811e-16 20 	-6.93923e-18 	6.15856e-17 20 	-1.3069e-16 	-1.24225e-17 20 	-1.3069e-16 	-1.24225e-17 20 	-1.3069e-16 	-1.24225e-17 20 	-1.3069e-16 	-1.24225e-17 20 	-2.35211e-17 	-2.7459e-17 20 	-1.32017e-16 	-5.27731e-17 20 	-1.32017e-16 	-5.27731e-17 20 	-1.32017e-16 	-5.27731e-17 20 	-1.32017e-16 	-5.27731e-17 20 	-8.54605e-17 	3.80127e-18 20 	-2.61383e-16 	5.20287e-17 20 	-2.61383e-16 	5.20287e-17 20 	-2.61383e-16 	5.20287e-17 20 	-2.61383e-16 	5.20287e-17 20 	-1.2526e-16 	6.82064e-17 20 	-2.69831e-16 	1.15295e-16 20 	-4.34857e-16 	1.83668e-16 20 	-5.99882e-16 	2.5204e-16 20 	-7.64908e-16 	3.20412e-16 20 	-8.18018e-16 	3.62044e-16
20 	9.87644e-17 	1.27094e-16 20 	9.81958e-17 	1.26914e-16 20 	9.76273e-17 	1.26735e-16 20 	9.70587e-17 	1.26555e-16 20 	9.64902e-17 	1.26376e-16 20 	9.59216e-17 	1.26196e-16 20 	1.18822e-16 	2.65612e-16 20 	1.18822e-16 	2.65612e-16 20 	1.18822e-16 	2.65612e-16 20 	1.18822e-16 	2.65612e-16 20 	5.16211e-17 	2.15719e-16 20 	3.10565e-17 	2.50569e-16 20 	3.10565e-17 	2.50569e-16 20 	3.10565e-17 	2.50569e-16 20 	3.10565e-17 	2.50569e-16 20 	2.97812e-17 	1.66729e-16 20 	2.45557e-17 	1.02562e-16 20 	2.45557e-17 	1.02562e-16 20 	2.45557e-17 	1.02562e-16 20 	2.45557e-17 	1.02562e-16 20 	-3.31613e-18 	3.57127e-17 20 	-5.19059e-17 	-5.57493e-17 20 	-5.19059e-17 	-5.57493e-17 20 	-5.19059e-17 	-5.57493e-17 20 	-5.19059e-17 	-5.57493e-17 20 	-4.1624e-17 	-1.74666e-18 20 	-2.08278e-18 	3.35838e-17 20 	-2.08278e-18 	3.35838e-17 20 	-2.08278e-18 	3.35838e-17 20 	-2.08278e-18 	3.35838e-17 20 	-1.15201e-17 	9.29849e-18 20 	8.39004e-17 	3.0248e-17 20 	8.39004e-17 	3.0248e-17 20 	8.39004e-17 	3.0248e-17 20 	8.39004e-17 	3.0248e-17 20 	7.02377e-17 	-3.06648e-17 20 	1.26974e-16 	-4.41951e-17 20 	1.26974e-16 	-4.41951e-17 20 	1.26974e-16 	-4.41951e-17 20 	1.26974e-16 	-4.41951e-17 20 	5.68681e-17 	-4.18531e-17 20 	8.41943e-17 	6.45874e-17 20 	8.41943e-17 	6.45874e-17 20 	8.41943e-17 	6.45874e-17 20 	8.41943e-17 	6.45874e-17 20 	5.83948e-17 	5.13391e-17 20 	1.12777e-16 	1.44969e-16 20 	1.12777e-16 	1.44969e-16 20 	1.12777e-16 	1.44969e-16 20 	1.12777e-16 	1.44969e-16 20 	1.06157e-16 	6.21824e-17 20 	1.35156e-16 	1.35176e-16 20 	1.35156e-16 	1.35176e-16 20 	1.35156e-16 	1.35176e-16 20 	1.35156e-16 	1.35176e-16 20 	1.00908e-16 	1.12265e-16 20 	-1.56965e-17 	3.00447e-16 20 	-1.56965e-17 	3.00447e-16 20 	-1.56965e-17 	3.00447e-16 20 	-1.56965e-17 	3.00447e-16 20 	5.1224e-17 	1.92075e-16 20 	-8.42519e-17 	1.39285e-16 20 	-8.42519e-17 	1.39285e-16 20 	-8.42519e-17 	1.39285e-16 20 	-8.42519e-17 	1.39285e-16 20 	-1.0373e-17 	9.206e-17 20 	-1.42329e-16 	-2.601e-17 20 	-1.42329e-16 	-2.601e-17 20 	-1.42329e-16 	-2.601e-17 20 	-1.42329e-16 	-2.601e-17 20 	-3.516e-17 	-4.10465e-17 20 	-1.74306e-16 	-5.08921e-17 20 	-1.74306e-16 	-5.08921e-17 20 	-1.74306e-16 	-5.08921e-17 20 	-1.74306e-16 	-5.08921e-17 20 	-1.27749e-16 	5.68225e-18 20 	-3.23366e-16 	8.57792e-17 20 	-3.23366e-16 	8.57792e-17 20 	-3.23366e-16 	8.57792e-17 20 	-3.23366e-16 	8.57792e-17 20 	-1.87242e-16 	1.01957e-16 20 	-2.79431e-16 	1.30873e-16 20 	-4.44457e-16 	1.99245e-16 20 	-6.09482e-16 	2.67617e-16 20 	-7.74508e-16 	3.35989e-16 20 	-8.27618e-16 	3.77621e-16
20 	1.30517e-16 	1.68868e-16 20 	1.29948e-16 	1.68689e-16 20 	1.2938e-16 	1.68509e-16 20 	1.28811e-16 	1.6833e-16 20 	1.28243e-16 	1.6815e-16 20 	1.27674e-16 	1.6797e-16 20 	1.39149e-16 	3.30475e-16 20 	1.3591e-16 	3.37021e-16 20 	1.3591e-16 	3.37021e-16 20 	1.3591e-16 	3.37021e-16 20 	6.87091e-17 	2.87128e-16 20 	4.25119e-17 	3.09343e-16 20 	4.09149e-17 	3.05761e-16 20 	4.09149e-17 	3.05761e-16 20 	4.09149e-17 	3.05761e-16 20 	3.96396e-17 	2.2192e-16 20 	2.58782e-17 	1.23964e-16 20 	2.3458e-17 	1.14384e-16 20 	2.3458e-17 	1.14384e-16 20 	2.3458e-17 	1.14384e-16 20 	-4.41387e-18 	4.75345e-17 20 	-6.28834e-17 	-5.35883e-17 20 	-6.56846e-17 	-5.63275e-17 20 	-6.56846e-17 	-5.63275e-17 20 	-6.56846e-17 	-5.63275e-17 20 	-5.54026e-17 	-2.32485e-18 20 	-8.09755e-18 	3.58542e-17 20 	-5.89624e-18 	3.66618e-17 20 	-5.89624e-18 	3.66618e-17 20 	-5.89624e-18 	3.66618e-17 20 	-1.53335e-17 	1.23765e-17 20 	1.01173e-16 	2.30194e-17 20 	1.07151e-16 	2.00971e-17 20 	1.07151e-16 	2.00971e-17 20 	1.07151e-16 	2.00971e-17 20 	9.34883e-17 	-4.08156e-17 20 	1.46777e-16 	-5.72315e-17 20 	1.45799e-16 	-5.80496e-17 20 	1.45799e-16 	-5.80496e-17 20 	1.45799e-16 	-5.80496e-17 20 	7.56929e-17 	-5.57076e-17 20 	1.03413e-16 	7.47675e-17 20 	1.03525e-16 	8.1582e-17 20 	1.03525e-16 	8.1582e-17 20 	1.03525e-16 	8.1582e-17 20 	7.77251e-17 	6.83337e-17 20 	1.44425e-16 	1.6476e-16 20 	1.47918e-16 	1.65553e-16 20 	1.47918e-16 	1.65553e-16 20 	1.47918e-16 	1.65553e-16 20 	1.41298e-16 	8.27665e-17 20 	1.68943e-16 	1.68677e-16 20 	1.68559e-16 	1.72339e-16 20 	1.68559e-16 	1.72339e-16 20 	1.68559e-16 	1.72339e-16 20 	1.34311e-16 	1.49428e-16 20 	4.89306e-18 	3.58193e-16 20 	1.26e-18 	3.64029e-16 20 	1.26e-18 	3.64029e-16 20 	1.26e-18 	3.64029e-16 20 	6.81805e-17 	2.55657e-16 20 	-8.31814e-17 	1.77073e-16 20 	-8.76856e-17 	1.6976e-16 20 	-8.76856e-17 	1.6976e-16 20 	-8.76856e-17 	1.6976e-16 20 	-1.38067e-17 	1.22534e-16 20 	-1.52155e-16 	-2.98643e-17 20 	-1.53968e-16 	-3.95976e-17 20 	-1.53968e-16 	-3.95976e-17 20 	-1.53968e-16 	-3.95976e-17 20 	-4.67989e-17 	-5.4634e-17 20 	-2.09824e-16 	-5.24281e-17 20 	-2.16594e-16 	-4.90111e-17 20 	-2.16594e-16 	-4.90111e-17 20 	-2.16594e-16 	-4.90111e-17 20 	-1.70037e-16 	7.56323e-18 20 	-3.80998e-16 	1.1249e-16 20 	-3.85348e-16 	1.1953e-16 20 	-3.85348e-16 	1.1953e-16 20 	-3.85348e-16 	1.1953e-16 20 	-2.49225e-16 	1.35707e-16 20 	-3.00603e-16 	1.50464e-16 20 	-4.54057e-16 	2.14822e-16 20 	-6.19083e-16 	2.83194e-16 20 	-7.84108e-16 	3.51566e-16 20 	-8.37218e-16 	3.93198e-16
20 	1.6227e-16 	2.10642e-16 20 	1.61701e-16 	2.10463e-16 20 	1.61133e-16 	2.10283e-16 20 	1.60564e-16 	2.10104e-16 20 	1.59995e-16 	2.09924e-16 20 	1.59427e-16 	2.09745e-16 20 	1.70902e-16 	3.72249e-16 20 	1.52998e-16 	4.0843e-16 20 	1.52998e-16 	4.0843e-16 20 	1.52998e-16 	4.0843e-16 20 	8.57971e-17 	3.58537e-16 20 	5.95999e-17 	3.80752e-16 20 	5.07733e-17 	3.60952e-16 20 	5.07733e-17 	3.60952e-16 20 	5.07733e-17 	3.60952e-16 20 	4.9498e-17 	2.77112e-16 20 	3.57366e-17 	1.79156e-16 20 	2.23602e-17 	1.26206e-16 20 	2.23602e-17 	1.26206e-16 20 	2.23602e-17 	1.26206e-16 20 	-5.5116e-18 	5.93564e-17 20 	-6.39811e-17 	-4.17665e-17 20 	-7.94633e-17 	-5.69057e-17 20 	-7.94633e-17 	-5.69057e-17 20 	-7.94633e-17 	-5.69057e-17 20 	-6.91813e-17 	-2.90304e-18 20 	-2.18762e-17 	3.5276e-17 20 	-9.7097e-18 	3.97399e-17 20 	-9.7097e-18 	3.97399e-17 20 	-9.7097e-18 	3.97399e-17 20 	-1.9147e-17 	1.54546e-17 20 	9.73591e-17 	2.60974e-17 20 	1.30402e-16 	9.94624e-18 20 	1.30402e-16 	9.94624e-18 20 	1.30402e-16 	9.94624e-18 20 	1.16739e-16 	-5.09665e-17 20 	1.70027e-16 	-6.73824e-17 20 	1.64624e-16 	-7.19041e-17 20 	1.64624e-16 	-7.19041e-17 20 	1.64624e-16 	-7.19041e-17 20 	9.45178e-17 	-6.95621e-17 20 	1.22238e-16 	6.0913e-17 20 	1.22855e-16 	9.85767e-17 20 	1.22855e-16 	9.85767e-17 20 	1.22855e-16 	9.85767e-17 20 	9.70554e-17 	8.53284e-17 20 	1.63755e-16 	1.81755e-16 20 	1.83059e-16 	1.86137e-16 20 	1.83059e-16 	1.86137e-16 20 	1.83059e-16 	1.86137e-16 20 	1.76439e-16 	1.03351e-16 20 	2.04084e-16 	1.89261e-16 20 	2.01962e-16 	2.09502e-16 20 	2.01962e-16 	2.09502e-16 20 	2.01962e-16 	2.09502e-16 20 	1.67714e-16 	1.86591e-16 20 	3.82962e-17 	3.95356e-16 20 	1.82165e-17 	4.27611e-16 20 	1.82165e-17 	4.27611e-16 20 	1.82165e-17 	4.27611e-16 20 	8.5137e-17 	3.19239e-16 20 	-6.62249e-17 	2.40655e-16 20 	-9.11194e-17 	2.00234e-16 20 	-9.11194e-17 	2.00234e-16 20 	-9.11194e-17 	2.00234e-16 20 	-1.72404e-17 	1.53009e-16 20 	-1.55589e-16 	6.10052e-19 20 	-1.65607e-16 	-5.31851e-17 20 	-1.65607e-16 	-5.31851e-17 20 	-1.65607e-16 	-5.31851e-17 20 	-5.84378e-17 	-6.82216e-17 20 	-2.21463e-16 	-6.60156e-17 20 	-2.58882e-16 	-4.71301e-17 20 	-2.58882e-16 	-4.71301e-17 20 	-2.58882e-16 	-4.71301e-17 20 	-2.12326e-16 	9.44421e-18 20 	-4.23286e-16 	1.14371e-16 20 	-4.4733e-16 	1.5328e-16 20 	-4.4733e-16 	1.5328e-16 20 	-4.4733e-16 	1.5328e-16 20 	-3.11207e-16 	1.69458e-16 20 	-3.62585e-16 	1.84215e-16 20 	-4.63658e-16 	2.30399e-16 20 	-6.28683e-16 	2.98771e-16 20 	-7.93709e-16 	3.67143e-16 20 	-8.46819e-16 	4.08775e-16
20 	1.94022e-16 	2.52417e-16 20 	1.93454e-16 	2.52237e-16 20 	1.92885e-16 	2.52058e-16 20 	1.92317e-16 	2.51878e-16 20 	1.91748e-16 	2.51699e-16 20 	1.9118e-16 	2.51519e-16 20 	2.02655e-16 	4.14023e-16 20 	1.70086e-16 	4.79839e-16 20 	1.70086e-16 	4.79839e-16 20 	1.70086e-16 	4.79839e-16 20 	1.02885e-16 	4.29946e-16 20 	7.66879e-17 	4.52161e-16 20 	6.06317e-17 	4.16144e-16 20 	6.06317e-17 	4.16144e-16 20 	6.06317e-17 	4.16144e-16 20 	5.93564e-17 	3.32304e-16 20 	4.5595e-17 	2.34348e-16 20 	2.12625e-17 	1.38028e-16 20 	2.12625e-17 	1.38028e-16 20 	2.12625e-17 	1.38028e-16 20 	-6.60933e-18 	7.11783e-17 20 	-6.50788e-17 	-2.99446e-17 20 	-9.32419e-17 	-5.74839e-17 20 	-9.32419e-17 	-5.74839e-17 20 	-9.32419e-17 	-5.74839e-17 20 	-8.296e-17 	-3.48123e-18 20 	-3.56549e-17 	3.46978e-17 20 	-1.35232e-17 	4.28179e-17 20 	-1.35232e-17 	4.28179e-17 20 	-1.35232e-17 	4.28179e-17 20 	-2.29605e-17 	1.85326e-17 20 	9.35456e-17 	2.91755e-17 20 	1.53652e-16 	-2.04636e-19 20 	1.53652e-16 	-2.04636e-19 20 	1.53652e-16 	-2.04636e-19 20 	1.3999e-16 	-6.11174e-17 20 	1.93278e-16 	-7.75332e-17 20 	1.83449e-16 	-8.57586e-17 20 	1.83449e-16 	-8.57586e-17 20 	1.83449e-16 	-8.57586e-17 20 	1.13343e-16 	-8.34165e-17 20 	1.41063e-16 	4.70585e-17 20 	1.42185e-16 	1.15571e-16 20 	1.42185e-16 	1.15571e-16 20 	1.42185e-16 	1.15571e-16 20 	1.16386e-16 	1.02323e-16 20 	1.83086e-16 	1.98749e-16 20 	2.182e-16 	2.06721e-16 20 	2.182e-16 	2.06721e-16 20 	2.182e-16 	2.06721e-16 20 	2.1158e-16 	1.23935e-16 20 	2.39225e-16 	2.09845e-16 20 	2.35366e-16 	2.46665e-16 20 	2.35366e-16 	2.46665e-16 20 	2.35366e-16 	2.46665e-16 20 	2.01117e-16 	2.23754e-16 20 	7.16994e-17 	4.32518e-16 20 	3.5173e-17 	4.91193e-16 20 	3.5173e-17 	4.91193e-16 20 	3.5173e-17 	4.91193e-16 20 	1.02094e-16 	3.82821e-16 20 	-4.92684e-17 	3.04237e-16 20 	-9.45531e-17 	2.30708e-16 20 	-9.45531e-17 	2.30708e-16 20 	-9.45531e-17 	2.30708e-16 20 	-2.06741e-17 	1.83483e-16 20 	-1.59023e-16 	3.10844e-17 20 	-1.77246e-16 	-6.67726e-17 20 	-1.77246e-16 	-6.67726e-17 20 	-1.77246e-16 	-6.67726e-17 20 	-7.00767e-17 	-8.18091e-17 20 	-2.33101e-16 	-7.96031e-17 20 	-3.01171e-16 	-4.52492e-17 20 	-3.01171e-16 	-4.52492e-17 20 	-3.01171e-16 	-4.52492e-17 20 	-2.54614e-16 	1.13252e-17 20 	-4.65574e-16 	1.16252e-16 20 	-5.09313e-16 	1.87031e-16 20 	-5.09313e-16 	1.87031e-16 20 	-5.09313e-16 	1.87031e-16 20 	-3.73189e-16 	2.03208e-16 20 	-4.24568e-16 	2.17965e-16 20 	-4.73258e-16 	2.45976e-16 20 	-6.38284e-16 	3.14348e-16 20 	-8.03309e-16 	3.8272e-16 20 	-8.56419e-16 	4.24352e-16