# vtk DataFile Version 2.0
track0
ASCII
DATASET POLYDATA
POINTS 1720 double
-1.001 -0.05 0.0011
-1.0008 -0.05 0.0011
-1.0006 -0.05 0.0011
-1.0004 -0.05 0.0011
-1.0002 -0.05 0.0011
-1 -0.05 0.0011
-0.8 -0.05 0.0011
-0.6 -0.05 0.0011
-0.4 -0.05 0.0011
-0.2 -0.05 0.0011
0 -0.05 0.0011
0.2 -0.05 0.0011
0.4 -0.05 0.0011
0.6 -0.05 0.0011
0.8 -0.05 0.0011
1 -0.05 0.0011
1.2 -0.05 0.0011
1.4 -0.05 0.0011
1.6 -0.05 0.0011
1.8 -0.05 0.0011
2 -0.05 0.0011
2.2 -0.05 0.0011
2.4 -0.05 0.0011
2.6 -0.05 0.0011
2.8 -0.05 0.0011
3 -0.05 0.0011
3.2 -0.05 0.0011
3.4 -0.05 0.0011
3.6 -0.05 0.0011
3.8 -0.05 0.0011
4 -0.05 0.0011
4.2 -0.05 0.0011
4.4 -0.05 0.0011
4.6 -0.05 0.0011
4.8 -0.05 0.0011
5 -0.05 0.0011
5.2 -0.05 0.0011
5.4 -0.05 0.0011
5.6 -0.05 0.0011
5.8 -0.05 0.0011
6 -0.05 0.0011
6.2 -0.05 0.0011
6.4 -0.05 0.0011
6.6 -0.05 0.0011
6.8 -0.05 0.0011
7 -0.05 0.0011
7.2 -0.05 0.0011
7.4 -0.05 0.0011
7.6 -0.05 0.0011
7.8 -0.05 0.0011
8 -0.05 0.0011
8.2 -0.05 0.0011
8.4 -0.05 0.0011
8.6 -0.05 0.0011
8.8 -0.05 0.0011
9 -0.05 0.0011
9.2 -0.05 0.0011
9.4 -0.05 0.0011
9.6 -0.05 0.0011
9.8 -0.05 0.0011
10 -0.05 0.0011
10.2 -0.05 0.0011
10.4 -0.05 0.0011
10.6 -0.05 0.0011
10.8 -0.05 0.0011
11 -0.05 0.0011
11.2 -0.05 0.0011
11.4 -0.05 0.0011
11.6 -0.05 0.0011
11.8 -0.05 0.0011
12 -0.05 0.0011
12.2 -0.05 0.0011
12.4 -0.05 0.0011
12.6 -0.05 0.0011
12.8 -0.05 0.0011
13 -0.05 0.0011
13.2 -0.05 0.0011
13.4 -0.05 0.0011
13.6 -0.05 0.0011
13.8 -0.05 0.0011
14 -0.05 0.0011
14.2 -0.05 0.0011
14.4 -0.05 0.0011
14.6 -0.05 0.0011
14.8 -0.05 0.0011
15 -0.05 0.0011
-1.001 -0.05 0.0537316
-1.0008 -0.05 0.0537316
-1.0006 -0.05 0.0537316
-1.0004 -0.05 0.0537316
-1.0002 -0.05 0.0537316
-1 -0.05 0.0537316
-0.8 -0.05 0.0537316
-0.6 -0.05 0.0537316
-0.4 -0.05 0.0537316
-0.2 -0.05 0.0537316
0 -0.05 0.0537316
0.2 -0.05 0.0537316
0.4 -0.05 0.0537316
0.6 -0.05 0.0537316
0.8 -0.05 0.0537316
1 -0.05 0.0537316
1.2 -0.05 0.0537316
1.4 -0.05 0.0537316
1.6 -0.05 0.0537316
1.8 -0.05 0.0537316
2 -0.05 0.0537316
2.2 -0.05 0.0537316
2.4 -0.05 0.0537316
2.6 -0.05 0.0537316
2.8 -0.05 0.0537316
3 -0.05 0.0537316
3.2 -0.05 0.0537316
3.4 -0.05 0.0537316
3.6 -0.05 0.0537316
3.8 -0.05 0.0537316
4 -0.05 0.0537316
4.2 -0.05 0.0537316
4.4 -0.05 0.0537316
4.6 -0.05 0.0537316
4.8 -0.05 0.0537316
5 -0.05 0.0537316
5.2 -0.05 0.0537316
5.4 -0.05 0.0537316
5.6 -0.05 0.0537316
5.8 -0.05 0.0537316
6 -0.05 0.0537316
6.2 -0.05 0.0537316
6.4 -0.05 0.0537316
6.6 -0.05 0.0537316
6.8 -0.05 0.0537316
7 -0.05 0.0537316
7.2 -0.05 0.0537316
7.4 -0.05 0.0537316
7.6 -0.05 0.0537316
7.8 -0.05 0.0537316
8 -0.05 0.0537316
8.2 -0.05 0.0537316
8.4 -0.05 0.0537316
8.6 -0.05 0.0537316
8.8 -0.05 0.0537316
9 -0.05 0.0537316
9.2 -0.05 0.0537316
9.4 -0.05 0.0537316
9.6 -0.05 0.0537316
9.8 -0.05 0.0537316
10 -0.05 0.0537316
10.2 -0.05 0.0537316
10.4 -0.05 0.0537316
10.6 -0.05 0.0537316
10.8 -0.05 0.0537316
11 -0.05 0.0537316
11.2 -0.05 0.0537316
11.4 -0.05 0.0537316
11.6 -0.05 0.0537316
11.8 -0.05 0.0537316
12 -0.05 0.0537316
12.2 -0.05 0.0537316
12.4 -0.05 0.0537316
12.6 -0.05 0.0537316
12.8 -0.05 0.0537316
13 -0.05 0.0537316
13.2 -0.05 0.0537316
13.4 -0.05 0.0537316
13.6 -0.05 0.0537316
13.8 -0.05 0.0537316
14 -0.05 0.0537316
14.2 -0.05 0.0537316
14.4 -0.05 0.0537316
14.6 -0.05 0.0537316
14.8 -0.05 0.0537316
15 -0.05 0.0537316
-1.001 -0.05 0.106363
-1.0008 -0.05 0.106363
-1.0006 -0.05 0.106363
-1.0004 -0.05 0.106363
-1.0002 -0.05 0.106363
-1 -0.05 0.106363
-0.8 -0.05 0.106363
-0.6 -0.05 0.106363
-0.4 -0.05 0.106363
-0.2 -0.05 0.106363
0 -0.05 0.106363
0.2 -0.05 0.106363
0.4 -0.05 0.106363
0.6 -0.05 0.106363
0.8 -0.05 0.106363
1 -0.05 0.106363
1.2 -0.05 0.106363
1.4 -0.05 0.106363
1.6 -0.05 0.106363
1.8 -0.05 0.106363
2 -0.05 0.106363
2.2 -0.05 0.106363
2.4 -0.05 0.106363
2.6 -0.05 0.106363
2.8 -0.05 0.106363
3 -0.05 0.106363
3.2 -0.05 0.106363
3.4 -0.05 0.106363
3.6 -0.05 0.106363
3.8 -0.05 0.106363
4 -0.05 0.106363
4.2 -0.05 0.106363
4.4 -0.05 0.106363
4.6 -0.05 0.106363
4.8 -0.05 0.106363
5 -0.05 0.106363
5.2 -0.05 0.106363
5.4 -0.05 0.106363
5.6 -0.05 0.106363
5.8 -0.05 0.106363
6 -0.05 0.106363
6.2 -0.05 0.106363
6.4 -0.05 0.106363
6.6 -0.05 0.106363
6.8 -0.05 0.106363
7 -0.05 0.106363
7.2 -0.05 0.106363
7.4 -0.05 0.106363
7.6 -0.05 0.106363
7.8 -0.05 0.106363
8 -0.05 0.106363
8.2 -0.05 0.106363
8.4 -0.05 0.106363
8.6 -0.05 0.106363
8.8 -0.05 0.106363
9 -0.05 0.106363
9.2 -0.05 0.106363
9.4 -0.05 0.106363
9.6 -0.05 0.106363
9.8 -0.05 0.106363
10 -0.05 0.106363
10.2 -0.05 0.106363
10.4 -0.05 0.106363
10.6 -0.05 0.106363
10.8 -0.05 0.106363
11 -0.05 0.106363
11.2 -0.05 0.106363
11.4 -0.05 0.106363
11.6 -0.05 0.106363
11.8 -0.05 0.106363
12 -0.05 0.106363
12.2 -0.05 0.106363
12.4 -0.05 0.106363
12.6 -0.05 0.106363
12.8 -0.05 0.106363
13 -0.05 0.106363
13.2 -0.05 0.106363
13.4 -0.05 0.106363
13.6 -0.05 0.106363
13.8 -0.05 0.106363
14 -0.05 0.106363
14.2 -0.05 0.106363
14.4 -0.05 0.106363
14.6 -0.05 0.106363
14.8 -0.05 0.106363
15 -0.05 0.106363
-1.001 -0.05 0.158995
-1.0008 -0.05 0.158995
-1.0006 -0.05 0.158995
-1.0004 -0.05 0.158995
-1.0002 -0.05 0.158995
-1 -0.05 0.158995
-0.8 -0.05 0.158995
-0.6 -0.05 0.158995
-0.4 -0.05 0.158995
-0.2 -0.05 0.158995
0 -0.05 0.158995
0.2 -0.05 0.158995
0.4 -0.05 0.158995
0.6 -0.05 0.158995
0.8 -0.05 0.158995
1 -0.05 0.158995
1.2 -0.05 0.158995
1.4 -0.05 0.158995
1.6 -0.05 0.158995
1.8 -0.05 0.158995
2 -0.05 0.158995
2.2 -0.05 0.158995
2.4 -0.05 0.158995
2.6 -0.05 0.158995
2.8 -0.05 0.158995
3 -0.05 0.158995
3.2 -0.05 0.158995
3.4 -0.05 0.158995
3.6 -0.05 0.158995
3.8 -0.05 0.158995
4 -0.05 0.158995
4.2 -0.05 0.158995
4.4 -0.05 0.158995
4.6 -0.05 0.158995
4.8 -0.05 0.158995
5 -0.05 0.158995
5.2 -0.05 0.158995
5.4 -0.05 0.158995
5.6 -0.05 0.158995
5.8 -0.05 0.158995
6 -0.05 0.158995
6.2 -0.05 0.158995
6.4 -0.05 0.158995
6.6 -0.05 0.158995
6.8 -0.05 0.158995
7 -0.05 0.158995
7.2 -0.05 0.158995
7.4 -0.05 0.158995
7.6 -0.05 0.158995
7.8 -0.05 0.158995
8 -0.05 0.158995
8.2 -0.05 0.158995
8.4 -0.05 0.158995
8.6 -0.05 0.158995
8.8 -0.05 0.158995
9 -0.05 0.158995
9.2 -0.05 0.158995
9.4 -0.05 0.158995
9.6 -0.05 0.158995
9.8 -0.05 0.158995
10 -0.05 0.158995
10.2 -0.05 0.158995
10.4 -0.05 0.158995
10.6 -0.05 0.158995
10.8 -0.05 0.158995
11 -0.05 0.158995
11.2 -0.05 0.158995
11.4 -0.05 0.158995
11.6 -0.05 0.158995
11.8 -0.05 0.158995
12 -0.05 0.158995
12.2 -0.05 0.158995
12.4 -0.05 0.158995
12.6 -0.05 0.158995
12.8 -0.05 0.158995
13 -0.05 0.158995
13.2 -0.05 0.158995
13.4 -0.05 0.158995
13.6 -0.05 0.158995
13.8 -0.05 0.158995
14 -0.05 0.158995
14.2 -0.05 0.158995
14.4 -0.05 0.158995
14.6 -0.05 0.158995
14.8 -0.05 0.158995
15 -0.05 0.158995
-1.001 -0.05 0.211626
-1.0008 -0.05 0.211626
-1.0006 -0.05 0.211626
-1.0004 -0.05 0.211626
-1.0002 -0.05 0.211626
-1 -0.05 0.211626
-0.8 -0.05 0.211626
-0.6 -0.05 0.211626
-0.4 -0.05 0.211626
-0.2 -0.05 0.211626
0 -0.05 0.211626
0.2 -0.05 0.211626
0.4 -0.05 0.211626
0.6 -0.05 0.211626
0.8 -0.05 0.211626
1 -0.05 0.211626
1.2 -0.05 0.211626
1.4 -0.05 0.211626
1.6 -0.05 0.211626
1.8 -0.05 0.211626
2 -0.05 0.211626
2.2 -0.05 0.211626
2.4 -0.05 0.211626
2.6 -0.05 0.211626
2.8 -0.05 0.211626
3 -0.05 0.211626
3.2 -0.05 0.211626
3.4 -0.05 0.211626
3.6 -0.05 0.211626
3.8 -0.05 0.211626
4 -0.05 0.211626
4.2 -0.05 0.211626
4.4 -0.05 0.211626
4.6 -0.05 0.211626
4.8 -0.05 0.211626
5 -0.05 0.211626
5.2 -0.05 0.211626
5.4 -0.05 0.211626
5.6 -0.05 0.211626
5.8 -0.05 0.211626
6 -0.05 0.211626
6.2 -0.05 0.211626
6.4 -0.05 0.211626
6.6 -0.05 0.211626
6.8 -0.05 0.211626
7 -0.05 0.211626
7.2 -0.05 0.211626
7.4 -0.05 0.211626
7.6 -0.05 0.211626
7.8 -0.05 0.211626
8 -0.05 0.211626
8.2 -0.05 0.211626
8.4 -0.05 0.211626
8.6 -0.05 0.211626
8.8 -0.05 0.211626
9 -0.05 0.211626
9.2 -0.05 0.211626
9.4 -0.05 0.211626
9.6 -0.05 0.211626
9.8 -0.05 0.211626
10 -0.05 0.211626
10.2 -0.05 0.211626
10.4 -0.05 0.211626
10.6 -0.05 0.211626
10.8 -0.05 0.211626
11 -0.05 0.211626
11.2 -0.05 0.211626
11.4 -0.05 0.211626
11.6 -0.05 0.211626
11.8 -0.05 0.211626
12 -0.05 0.211626
12.2 -0.05 0.211626
12.4 -0.05 0.211626
12.6 -0.05 0.211626
12.8 -0.05 0.211626
13 -0.05 0.211626
13.2 -0.05 0.211626
13.4 -0.05 0.211626
13.6 -0.05 0.211626
13.8 -0.05 0.211626
14 -0.05 0.211626
14.2 -0.05 0.211626
14.4 -0.05 0.211626
14.6 -0.05 0.211626
14.8 -0.05 0.211626
15 -0.05 0.211626
-1.001 -0.05 0.264258
-1.0008 -0.05 0.264258
-1.0006 -0.05 0.264258
-1.0004 -0.05 0.264258
-1.0002 -0.05 0.264258
-1 -0.05 0.264258
-0.8 -0.05 0.264258
-0.6 -0.05 0.264258
-0.4 -0.05 0.264258
-0.2 -0.05 0.264258
0 -0.05 0.264258
0.2 -0.05 0.264258
0.4 -0.05 0.264258
0.6 -0.05 0.264258
0.8 -0.05 0.264258
1 -0.05 0.264258
1.2 -0.05 0.264258
1.4 -0.05 0.264258
1.6 -0.05 0.264258
1.8 -0.05 0.264258
2 -0.05 0.264258
2.2 -0.05 0.264258
2.4 -0.05 0.264258
2.6 -0.05 0.264258
2.8 -0.05 0.264258
3 -0.05 0.264258
3.2 -0.05 0.264258
3.4 -0.05 0.264258
3.6 -0.05 0.264258
3.8 -0.05 0.264258
4 -0.05 0.264258
4.2 -0.05 0.264258
4.4 -0.05 0.264258
4.6 -0.05 0.264258
4.8 -0.05 0.264258
5 -0.05 0.264258
5.2 -0.05 0.264258
5.4 -0.05 0.264258
5.6 -0.05 0.264258
5.8 -0.05 0.264258
6 -0.05 0.264258
6.2 -0.05 0.264258
6.4 -0.05 0.264258
6.6 -0.05 0.264258
6.8 -0.05 0.264258
7 -0.05 0.264258
7.2 -0.05 0.264258
7.4 -0.05 0.264258
7.6 -0.05 0.264258
7.8 -0.05 0.264258
8 -0.05 0.264258
8.2 -0.05 0.264258
8.4 -0.05 0.264258
8.6 -0.05 0.264258
8.8 -0.05 0.264258
9 -0.05 0.264258
9.2 -0.05 0.264258
9.4 -0.05 0.264258
9.6 -0.05 0.264258
9.8 -0.05 0.264258
10 -0.05 0.264258
10.2 -0.05 0.264258
10.4 -0.05 0.264258
10.6 -0.05 0.264258
10.8 -0.05 0.264258
11 -0.05 0.264258
11.2 -0.05 0.264258
11.4 -0.05 0.264258
11.6 -0.05 0.264258
11.8 -0.05 0.264258
12 -0.05 0.264258
12.2 -0.05 0.264258
12.4 -0.05 0.264258
12.6 -0.05 0.264258
12.8 -0.05 0.264258
13 -0.05 0.264258
13.2 -0.05 0.264258
13.4 -0.05 0.264258
13.6 -0.05 0.264258
13.8 -0.05 0.264258
14 -0.05 0.264258
14.2 -0.05 0.264258
14.4 -0.05 0.264258
14.6 -0.05 0.264258
14.8 -0.05 0.264258
15 -0.05 0.264258
-1.001 -0.05 0.316889
-1.0008 -0.05 0.316889
-1.0006 -0.05 0.316889
-1.0004 -0.05 0.316889
[...]
POINT_DATA 1720
 FIELD attributes 1
U 3 1720 float
20 	2.26993e-18 	1.53242e-18 20 	2.01349e-18 	1.27992e-18 20 	1.75705e-18 	1.02742e-18 20 	1.50062e-18 	7.74925e-19 20 	1.24418e-18 	5.22426e-19 20 	9.87742e-19 	2.69927e-19 20 	3.62853e-18 	5.25828e-19 20 	3.62853e-18 	5.25828e-19 20 	3.62853e-18 	5.25828e-19 20 	3.62853e-18 	5.25828e-19 20 	7.04321e-19 	6.75742e-20 20 	-4.18885e-20 	-3.94775e-19 20 	-4.18885e-20 	-3.94775e-19 20 	-4.18885e-20 	-3.94775e-19 20 	-4.18885e-20 	-3.94775e-19 20 	-2.71706e-20 	1.58329e-19 20 	1.28866e-19 	1.29881e-18 20 	1.28866e-19 	1.29881e-18 20 	1.28866e-19 	1.29881e-18 20 	1.28866e-19 	1.29881e-18 20 	-2.30392e-19 	1.51603e-19 20 	1.09612e-18 	-1.46245e-18 20 	1.09612e-18 	-1.46245e-18 20 	1.09612e-18 	-1.46245e-18 20 	1.09612e-18 	-1.46245e-18 20 	-3.30126e-19 	-3.02053e-19 20 	-1.46374e-18 	-1.61971e-18 20 	-1.46374e-18 	-1.61971e-18 20 	-1.46374e-18 	-1.61971e-18 20 	-1.46374e-18 	-1.61971e-18 20 	-3.25652e-19 	-3.33591e-19 20 	-1.28791e-18 	-1.51382e-18 20 	-1.28791e-18 	-1.51382e-18 20 	-1.28791e-18 	-1.51382e-18 20 	-1.28791e-18 	-1.51382e-18 20 	-3.76121e-19 	-2.0138e-19 20 	-2.2317e-18 	-1.96269e-18 20 	-2.2317e-18 	-1.96269e-18 20 	-2.2317e-18 	-1.96269e-18 20 	-2.2317e-18 	-1.96269e-18 20 	-4.66281e-19 	-4.11948e-19 20 	1.15554e-18 	-5.89783e-19 20 	1.15554e-18 	-5.89783e-19 20 	1.15554e-18 	-5.89783e-19 20 	1.15554e-18 	-5.89783e-19 20 	-5.231e-19 	-3.86379e-19 20 	-1.0525e-18 	-4.71379e-19 20 	-1.0525e-18 	-4.71379e-19 20 	-1.0525e-18 	-4.71379e-19 20 	-1.0525e-18 	-4.71379e-19 20 	-8.16714e-19 	-8.68089e-20 20 	-7.71319e-19 	1.27601e-20 20 	-7.71319e-19 	1.27601e-20 20 	-7.71319e-19 	1.27601e-20 20 	-7.71319e-19 	1.27601e-20 20 	-1.58275e-18 	-9.96922e-20 20 	-2.57195e-18 	3.95581e-19 20 	-2.57195e-18 	3.95581e-19 20 	-2.57195e-18 	3.95581e-19 20 	-2.57195e-18 	3.95581e-19 20 	-1.95095e-18 	1.5636e-19 20 	-3.92049e-18 	4.25215e-19 20 	-3.92049e-18 	4.25215e-19 20 	-3.92049e-18 	4.25215e-19 20 	-3.92049e-18 	4.25215e-19 20 	-1.19239e-18 	5.41795e-19 20 	-1.39539e-18 	2.13173e-18 20 	-1.39539e-18 	2.13173e-18 20 	-1.39539e-18 	2.13173e-18 20 	-1.39539e-18 	2.13173e-18 20 	-8.14537e-19 	3.82277e-19 20 	4.00632e-19 	1.09646e-18 20 	4.00632e-19 	1.09646e-18 20 	4.00632e-19 	1.09646e-18 20 	4.00632e-19 	1.09646e-18 20 	-7.35682e-19 	5.24256e-19 20 	1.4724e-18 	7.70517e-19 20 	1.4724e-18 	7.70517e-19 20 	1.4724e-18 	7.70517e-19 20 	1.4724e-18 	7.70517e-19 20 	-2.54299e-19 	9.86332e-19 20 	-9.35356e-18 	9.70138e-17 20 	-1.89837e-17 	1.92851e-16 20 	-2.86138e-17 	2.88689e-16 20 	-3.8244e-17 	3.84526e-16 20 	-5.47452e-17 	4.72067e-16
20 	4.95303e-17 	1.44476e-17 20 	4.92739e-17 	1.41951e-17 20 	4.90174e-17 	1.39426e-17 20 	4.8761e-17 	1.36901e-17 20 	4.85046e-17 	1.34376e-17 20 	4.82481e-17 	1.31851e-17 20 	1.67322e-16 	2.41305e-17 20 	1.67322e-16 	2.41305e-17 20 	1.67322e-16 	2.41305e-17 20 	1.67322e-16 	2.41305e-17 20 	3.44039e-17 	3.30079e-18 20 	-1.99619e-18 	-1.74072e-17 20 	-1.99619e-18 	-1.74072e-17 20 	-1.99619e-18 	-1.74072e-17 20 	-1.99619e-18 	-1.74072e-17 20 	-1.3272e-18 	7.7339e-18 20 	5.07597e-18 	5.95509e-17 20 	5.07597e-18 	5.95509e-17 20 	5.07597e-18 	5.95509e-17 20 	5.07597e-18 	5.95509e-17 20 	-1.12539e-17 	7.40534e-18 20 	4.87036e-17 	-6.74995e-17 20 	4.87036e-17 	-6.74995e-17 20 	4.87036e-17 	-6.74995e-17 20 	4.87036e-17 	-6.74995e-17 20 	-1.61256e-17 	-1.47544e-17 20 	-6.76383e-17 	-7.47551e-17 20 	-6.76383e-17 	-7.47551e-17 20 	-6.76383e-17 	-7.47551e-17 20 	-6.76383e-17 	-7.47551e-17 20 	-1.59071e-17 	-1.62949e-17 20 	-5.98171e-17 	-6.94933e-17 20 	-5.98171e-17 	-6.94933e-17 20 	-5.98171e-17 	-6.94933e-17 20 	-5.98171e-17 	-6.94933e-17 20 	-1.83723e-17 	-9.83679e-18 20 	-1.03023e-16 	-9.06105e-17 20 	-1.03023e-16 	-9.06105e-17 20 	-1.03023e-16 	-9.06105e-17 20 	-1.03023e-16 	-9.06105e-17 20 	-2.27764e-17 	-2.01224e-17 20 	5.07502e-17 	-2.81191e-17 20 	5.07502e-17 	-2.81191e-17 20 	5.07502e-17 	-2.81191e-17 20 	5.07502e-17 	-2.81191e-17 20 	-2.55518e-17 	-1.88734e-17 20 	-5.06116e-17 	-2.17208e-17 20 	-5.06116e-17 	-2.17208e-17 20 	-5.06116e-17 	-2.17208e-17 20 	-5.06116e-17 	-2.17208e-17 20 	-3.98939e-17 	-4.24035e-18 20 	-4.04292e-17 	2.41815e-19 20 	-4.04292e-17 	2.41815e-19 20 	-4.04292e-17 	2.41815e-19 20 	-4.04292e-17 	2.41815e-19 20 	-7.73126e-17 	-4.86965e-18 20 	-1.23525e-16 	1.85114e-17 20 	-1.23525e-16 	1.85114e-17 20 	-1.23525e-16 	1.85114e-17 20 	-1.23525e-16 	1.85114e-17 20 	-9.52977e-17 	7.63768e-18 20 	-1.82249e-16 	2.11659e-17 20 	-1.82249e-16 	2.11659e-17 20 	-1.82249e-16 	2.11659e-17 20 	-1.82249e-16 	2.11659e-17 20 	-5.82443e-17 	2.6465e-17 20 	-6.619e-17 	9.81934e-17 20 	-6.619e-17 	9.81934e-17 20 	-6.619e-17 	9.81934e-17 20 	-6.619e-17 	9.81934e-17 20 	-3.97876e-17 	1.8673e-17 20 	1.57149e-17 	5.16177e-17 20 	1.57149e-17 	5.16177e-17 20 	1.57149e-17 	5.16177e-17 20 	1.57149e-17 	5.16177e-17 20 	-3.59358e-17 	2.56083e-17 20 	6.60645e-17 	3.83695e-17 20 	6.60645e-17 	3.83695e-17 20 	6.60645e-17 	3.83695e-17 20 	6.60645e-17 	3.83695e-17 20 	-1.24217e-17 	4.81792e-17 20 	2.94216e-18 	1.51073e-16 20 	-6.68799e-18 	2.46911e-16 20 	-1.63181e-17 	3.42749e-16 20 	-2.59483e-17 	4.38586e-16 20 	-5.47431e-17 	4.97022e-16
20 	9.67907e-17 	2.73628e-17 20 	9.65342e-17 	2.71103e-17 20 	9.62778e-17 	2.68578e-17 20 	9.60214e-17 	2.66053e-17 20 	9.57649e-17 	2.63528e-17 20 	9.55085e-17 	2.61003e-17 20 	2.01022e-16 	2.73637e-17 20 	2.01022e-16 	2.73637e-17 20 	2.01022e-16 	2.73637e-17 20 	2.01022e-16 	2.73637e-17 20 	6.81034e-17 	6.534e-18 20 	-3.29622e-18 	-9.83162e-18 20 	-3.29622e-18 	-9.83162e-18 20 	-3.29622e-18 	-9.83162e-18 20 	-3.29622e-18 	-9.83162e-18 20 	-2.62723e-18 	1.53095e-17 20 	-5.94758e-18 	6.68047e-17 20 	-5.94758e-18 	6.68047e-17 20 	-5.94758e-18 	6.68047e-17 20 	-5.94758e-18 	6.68047e-17 20 	-2.22775e-17 	1.46591e-17 20 	3.29082e-17 	-8.19518e-17 20 	3.29082e-17 	-8.19518e-17 20 	3.29082e-17 	-8.19518e-17 20 	3.29082e-17 	-8.19518e-17 20 	-3.19211e-17 	-2.92067e-17 20 	-8.32197e-17 	-9.07164e-17 20 	-8.32197e-17 	-9.07164e-17 20 	-8.32197e-17 	-9.07164e-17 20 	-8.32197e-17 	-9.07164e-17 20 	-3.14885e-17 	-3.22562e-17 20 	-7.78133e-17 	-7.91287e-17 20 	-7.78133e-17 	-7.91287e-17 20 	-7.78133e-17 	-7.91287e-17 20 	-7.78133e-17 	-7.91287e-17 20 	-3.63685e-17 	-1.94722e-17 20 	-1.25333e-16 	-1.10321e-16 20 	-1.25333e-16 	-1.10321e-16 20 	-1.25333e-16 	-1.10321e-16 20 	-1.25333e-16 	-1.10321e-16 20 	-4.50864e-17 	-3.98328e-17 20 	2.57214e-17 	-4.66061e-17 20 	2.57214e-17 	-4.66061e-17 20 	2.57214e-17 	-4.66061e-17 20 	2.57214e-17 	-4.66061e-17 20 	-5.05805e-17 	-3.73604e-17 20 	-8.96889e-17 	-2.58743e-17 20 	-8.96889e-17 	-2.58743e-17 20 	-8.96889e-17 	-2.58743e-17 20 	-8.96889e-17 	-2.58743e-17 20 	-7.89712e-17 	-8.39388e-18 20 	-1.16159e-16 	-4.52815e-18 20 	-1.16159e-16 	-4.52815e-18 20 	-1.16159e-16 	-4.52815e-18 20 	-1.16159e-16 	-4.52815e-18 20 	-1.53043e-16 	-9.63961e-18 20 	-2.16872e-16 	2.59927e-17 20 	-2.16872e-16 	2.59927e-17 20 	-2.16872e-16 	2.59927e-17 20 	-2.16872e-16 	2.59927e-17 20 	-1.88645e-16 	1.5119e-17 20 	-2.39301e-16 	4.70891e-17 20 	-2.39301e-16 	4.70891e-17 20 	-2.39301e-16 	4.70891e-17 20 	-2.39301e-16 	4.70891e-17 20 	-1.15296e-16 	5.23882e-17 20 	-1.05163e-16 	1.16484e-16 20 	-1.05163e-16 	1.16484e-16 20 	-1.05163e-16 	1.16484e-16 20 	-1.05163e-16 	1.16484e-16 20 	-7.87607e-17 	3.69638e-17 20 	-1.94852e-17 	7.67017e-17 20 	-1.94852e-17 	7.67017e-17 20 	-1.94852e-17 	7.67017e-17 20 	-1.94852e-17 	7.67017e-17 20 	-7.11359e-17 	5.06923e-17 20 	5.38971e-17 	8.55624e-17 20 	5.38971e-17 	8.55624e-17 20 	5.38971e-17 	8.55624e-17 20 	5.38971e-17 	8.55624e-17 20 	-2.45891e-17 	9.53721e-17 20 	2.94429e-18 	1.76028e-16 20 	-6.68585e-18 	2.71866e-16 20 	-1.6316e-17 	3.67703e-16 20 	-2.59461e-17 	4.63541e-16 20 	-5.4741e-17 	5.21977e-16
20 	1.44051e-16 	4.0278e-17 20 	1.43795e-16 	4.00255e-17 20 	1.43538e-16 	3.9773e-17 20 	1.43282e-16 	3.95205e-17 20 	1.43025e-16 	3.9268e-17 20 	1.42769e-16 	3.90155e-17 20 	2.34722e-16 	3.05969e-17 20 	2.34722e-16 	3.05969e-17 20 	2.34722e-16 	3.05969e-17 20 	2.34722e-16 	3.05969e-17 20 	1.01803e-16 	9.76721e-18 20 	-4.59625e-18 	-2.25605e-18 20 	-4.59625e-18 	-2.25605e-18 20 	-4.59625e-18 	-2.25605e-18 20 	-4.59625e-18 	-2.25605e-18 20 	-3.92726e-18 	2.2885e-17 20 	-1.69711e-17 	7.40584e-17 20 	-1.69711e-17 	7.40584e-17 20 	-1.69711e-17 	7.40584e-17 20 	-1.69711e-17 	7.40584e-17 20 	-3.33011e-17 	2.19128e-17 20 	1.71127e-17 	-9.64041e-17 20 	1.71127e-17 	-9.64041e-17 20 	1.71127e-17 	-9.64041e-17 20 	1.71127e-17 	-9.64041e-17 20 	-4.77166e-17 	-4.3659e-17 20 	-9.88012e-17 	-1.06678e-16 20 	-9.88012e-17 	-1.06678e-16 20 	-9.88012e-17 	-1.06678e-16 20 	-9.88012e-17 	-1.06678e-16 20 	-4.707e-17 	-4.82175e-17 20 	-9.58095e-17 	-8.87641e-17 20 	-9.58095e-17 	-8.87641e-17 20 	-9.58095e-17 	-8.87641e-17 20 	-9.58095e-17 	-8.87641e-17 20 	-5.43647e-17 	-2.91076e-17 20 	-1.47643e-16 	-1.30031e-16 20 	-1.47643e-16 	-1.30031e-16 20 	-1.47643e-16 	-1.30031e-16 20 	-1.47643e-16 	-1.30031e-16 20 	-6.73965e-17 	-5.95432e-17 20 	6.92738e-19 	-6.50931e-17 20 	6.92738e-19 	-6.50931e-17 20 	6.92738e-19 	-6.50931e-17 20 	6.92738e-19 	-6.50931e-17 20 	-7.56092e-17 	-5.58475e-17 20 	-1.28766e-16 	-3.00279e-17 20 	-1.28766e-16 	-3.00279e-17 20 	-1.28766e-16 	-3.00279e-17 20 	-1.28766e-16 	-3.00279e-17 20 	-1.18048e-16 	-1.25474e-17 20 	-1.91889e-16 	-9.29811e-18 20 	-1.91889e-16 	-9.29811e-18 20 	-1.91889e-16 	-9.29811e-18 20 	-1.91889e-16 	-9.29811e-18 20 	-2.28772e-16 	-1.44096e-17 20 	-3.10219e-16 	3.3474e-17 20 	-3.10219e-16 	3.3474e-17 20 	-3.10219e-16 	3.3474e-17 20 	-3.10219e-16 	3.3474e-17 20 	-2.81991e-16 	2.26003e-17 20 	-2.96353e-16 	7.30123e-17 20 	-2.96353e-16 	7.30123e-17 20 	-2.96353e-16 	7.30123e-17 20 	-2.96353e-16 	7.30123e-17 20 	-1.72348e-16 	7.83114e-17 20 	-1.44136e-16 	1.34775e-16 20 	-1.44136e-16 	1.34775e-16 20 	-1.44136e-16 	1.34775e-16 20 	-1.44136e-16 	1.34775e-16 20 	-1.17734e-16 	5.52545e-17 20 	-5.46853e-17 	1.01786e-16 20 	-5.46853e-17 	1.01786e-16 20 	-5.46853e-17 	1.01786e-16 20 	-5.46853e-17 	1.01786e-16 20 	-1.06336e-16 	7.57763e-17 20 	4.17297e-17 	1.32755e-16 20 	4.17297e-17 	1.32755e-16 20 	4.17297e-17 	1.32755e-16 20 	4.17297e-17 	1.32755e-16 20 	-3.67565e-17 	1.42565e-16 20 	2.94642e-18 	2.00983e-16 20 	-6.68372e-18 	2.96821e-16 20 	-1.63139e-17 	3.92658e-16 20 	-2.5944e-17 	4.88496e-16 20 	-5.47388e-17 	5.46932e-16
20 	1.91311e-16 	5.31932e-17 20 	1.91055e-16 	5.29407e-17 20 	1.90799e-16 	5.26882e-17 20 	1.90542e-16 	5.24357e-17 20 	1.90286e-16 	5.21832e-17 20 	1.90029e-16 	5.19307e-17 20 	2.71417e-16 	3.59689e-17 20 	2.68421e-16 	3.38301e-17 20 	2.68421e-16 	3.38301e-17 20 	2.68421e-16 	3.38301e-17 20 	1.35503e-16 	1.30004e-17 20 	1.83512e-18 	4.3603e-18 20 	-5.89628e-18 	5.31952e-18 20 	-5.89628e-18 	5.31952e-18 20 	-5.89628e-18 	5.31952e-18 20 	-5.22729e-18 	3.04606e-17 20 	-2.58468e-17 	8.13832e-17 20 	-2.79947e-17 	8.13122e-17 20 	-2.79947e-17 	8.13122e-17 20 	-2.79947e-17 	8.13122e-17 20 	-4.43246e-17 	2.91666e-17 20 	2.37132e-18 	-1.06062e-16 20 	1.3172e-18 	-1.10856e-16 20 	1.3172e-18 	-1.10856e-16 20 	1.3172e-18 	-1.10856e-16 20 	-6.35121e-17 	-5.81113e-17 20 	-1.1443e-16 	-1.22306e-16 20 	-1.14383e-16 	-1.22639e-16 20 	-1.14383e-16 	-1.22639e-16 20 	-1.14383e-16 	-1.22639e-16 20 	-6.26514e-17 	-6.41787e-17 20 	-1.13272e-16 	-9.97969e-17 20 	-1.13806e-16 	-9.83995e-17 20 	-1.13806e-16 	-9.83995e-17 20 	-1.13806e-16 	-9.83995e-17 20 	-7.23609e-17 	-3.8743e-17 20 	-1.69e-16 	-1.47516e-16 20 	-1.69953e-16 	-1.49742e-16 20 	-1.69953e-16 	-1.49742e-16 20 	-1.69953e-16 	-1.49742e-16 20 	-8.97066e-17 	-7.92536e-17 20 	-2.37354e-17 	-8.38504e-17 20 	-2.4336e-17 	-8.35802e-17 20 	-2.4336e-17 	-8.35802e-17 20 	-2.4336e-17 	-8.35802e-17 20 	-1.00638e-16 	-7.43345e-17 20 	-1.6474e-16 	-3.73477e-17 20 	-1.67843e-16 	-3.41814e-17 20 	-1.67843e-16 	-3.41814e-17 20 	-1.67843e-16 	-3.41814e-17 20 	-1.57126e-16 	-1.6701e-17 20 	-2.59522e-16 	-1.39319e-17 20 	-2.67619e-16 	-1.40681e-17 20 	-2.67619e-16 	-1.40681e-17 20 	-2.67619e-16 	-1.40681e-17 20 	-3.04502e-16 	-1.91795e-17 20 	-3.99674e-16 	3.8249e-17 20 	-4.03565e-16 	4.09553e-17 20 	-4.03565e-16 	4.09553e-17 20 	-4.03565e-16 	4.09553e-17 20 	-3.75338e-16 	3.00816e-17 20 	-3.61422e-16 	9.48617e-17 20 	-3.53405e-16 	9.89355e-17 20 	-3.53405e-16 	9.89355e-17 20 	-3.53405e-16 	9.89355e-17 20 	-2.294e-16 	1.04235e-16 20 	-1.87103e-16 	1.54752e-16 20 	-1.83109e-16 	1.53066e-16 20 	-1.83109e-16 	1.53066e-16 20 	-1.83109e-16 	1.53066e-16 20 	-1.56707e-16 	7.35453e-17 20 	-9.07189e-17 	1.25369e-16 20 	-8.98854e-17 	1.2687e-16 20 	-8.98854e-17 	1.2687e-16 20 	-8.98854e-17 	1.2687e-16 20 	-1.41536e-16 	1.0086e-16 20 	2.44743e-17 	1.75064e-16 20 	2.95623e-17 	1.79948e-16 20 	2.95623e-17 	1.79948e-16 20 	2.95623e-17 	1.79948e-16 20 	-4.8924e-17 	1.89758e-16 20 	2.60302e-19 	2.3085e-16 20 	-6.68159e-18 	3.21775e-16 20 	-1.63117e-17 	4.17613e-16 20 	-2.59419e-17 	5.1345e-16 20 	-5.47367e-17 	5.71886e-16
20 	2.38572e-16 	6.61083e-17 20 	2.38315e-16 	6.58558e-17 20 	2.38059e-16 	6.56033e-17 20 	2.37802e-16 	6.53508e-17 20 	2.37546e-16 	6.50983e-17 20 	2.3729e-16 	6.48458e-17 20 	3.18677e-16 	4.88841e-17 20 	3.02121e-16 	3.70633e-17 20 	3.02121e-16 	3.70633e-17 20 	3.02121e-16 	3.70633e-17 20 	1.69202e-16 	1.62336e-17 20 	3.55347e-17 	7.59351e-18 20 	-7.19631e-18 	1.28951e-17 20 	-7.19631e-18 	1.28951e-17 20 	-7.19631e-18 	1.28951e-17 20 	-6.52732e-18 	3.80362e-17 20 	-2.71468e-17 	8.89588e-17 20 	-3.90182e-17 	8.85659e-17 20 	-3.90182e-17 	8.85659e-17 20 	-3.90182e-17 	8.85659e-17 20 	-5.53482e-17 	3.64203e-17 20 	-8.65224e-18 	-9.88078e-17 20 	-1.44783e-17 	-1.25309e-16 20 	-1.44783e-17 	-1.25309e-16 20 	-1.44783e-17 	-1.25309e-16 20 	-7.93075e-17 	-7.25636e-17 20 	-1.30225e-16 	-1.36758e-16 20 	-1.29964e-16 	-1.386e-16 20 	-1.29964e-16 	-1.386e-16 20 	-1.29964e-16 	-1.386e-16 20 	-7.82329e-17 	-8.014e-17 20 	-1.28854e-16 	-1.15758e-16 20 	-1.31802e-16 	-1.08035e-16 20 	-1.31802e-16 	-1.08035e-16 20 	-1.31802e-16 	-1.08035e-16 20 	-9.03571e-17 	-4.83784e-17 20 	-1.86996e-16 	-1.57152e-16 20 	-1.92263e-16 	-1.69452e-16 20 	-1.92263e-16 	-1.69452e-16 20 	-1.92263e-16 	-1.69452e-16 20 	-1.12017e-16 	-9.8964e-17 20 	-4.60455e-17 	-1.03561e-16 20 	-4.93647e-17 	-1.02067e-16 20 	-4.93647e-17 	-1.02067e-16 20 	-4.93647e-17 	-1.02067e-16 20 	-1.25667e-16 	-9.28215e-17 20 	-1.89769e-16 	-5.58347e-17 20 	-2.06921e-16 	-3.83349e-17 20 	-2.06921e-16 	-3.83349e-17 20 	-2.06921e-16 	-3.83349e-17 20 	-1.96203e-16 	-2.08545e-17 20 	-2.986e-16 	-1.80854e-17 20 	-3.43349e-16 	-1.8838e-17 20 	-3.43349e-16 	-1.8838e-17 20 	-3.43349e-16 	-1.8838e-17 20 	-3.80232e-16 	-2.39495e-17 20 	-4.75404e-16 	3.3479e-17 20 	-4.96912e-16 	4.84366e-17 20 	-4.96912e-16 	4.84366e-17 20 	-4.96912e-16 	4.84366e-17 20 	-4.68685e-16 	3.7563e-17 20 	-4.54769e-16 	1.02343e-16 20 	-4.10457e-16 	1.24859e-16 20 	-4.10457e-16 	1.24859e-16 20 	-4.10457e-16 	1.24859e-16 20 	-2.86452e-16 	1.30158e-16 20 	-2.44155e-16 	1.80675e-16 20 	-2.22082e-16 	1.71356e-16 20 	-2.22082e-16 	1.71356e-16 20 	-2.22082e-16 	1.71356e-16 20 	-1.9568e-16 	9.1836e-17 20 	-1.29692e-16 	1.4366e-16 20 	-1.25086e-16 	1.51954e-16 20 	-1.25086e-16 	1.51954e-16 20 	-1.25086e-16 	1.51954e-16 20 	-1.76736e-16 	1.25944e-16 20 	-1.07258e-17 	2.00148e-16 20 	1.73948e-17 	2.27141e-16 20 	1.73948e-17 	2.27141e-16 20 	1.73948e-17 	2.27141e-16 20 	-6.10914e-17 	2.36951e-16 20 	-1.19071e-17 	2.78043e-16 20 	-6.67945e-18 	3.4673e-16 20 	-1.63096e-17 	4.42568e-16 20 	-2.59397e-17 	5.38405e-16 20 	-5.47346e-17 	5.96841e-16
20 	2.85832e-16 	7.90235e-17 20 	2.85576e-16 	7.8771e-17 20 	2.85319e-16 	7.85185e-17 20 	2.85063e-16 	7.8266e-17 20 	2.84806e-16 	7.80135e-17 20 	2.8455e-16 	7.7761e-17 20 	3.65937e-16 	6.17992e-17 20 	3.3582e-16 	4.02966e-17 20 	3.3582e-16 	4.02966e-17 20 	3.3582e-16 	4.02966e-17 20 	2.02902e-16 	1.94669e-17 20 	6.92342e-17 	1.08267e-17 20 	-8.49634e-18 	2.04707e-17 20 	-8.49634e-18 	2.04707e-17 20 	-8.49634e-18 	2.04707e-17 20 	-7.82735e-18 	4.56118e-17 20 	-2.84468e-17 	9.65344e-17 20 	-5.00418e-17 	9.58196e-17 20 	-5.00418e-17 	9.58196e-17 20 	-5.00418e-17 	9.58196e-17 20 	-6.63717e-17 	4.3674e-17 20 	-1.96758e-17 	-9.15541e-17 20 	-3.02738e-17 	-1.39761e-16 20 	-3.02738e-17 	-1.39761e-16 20 	-3.02738e-17 	-1.39761e-16 20 	-9.5103e-17 	-8.70159e-17 20 	-1.46021e-16 	-1.5121e-16 20 	-1.45546e-16 	-1.54561e-16 20 	-1.45546e-16 	-1.54561e-16 20 	-1.45546e-16 	-1.54561e-16 20 	-9.38143e-17 	-9.61013e-17 20 	-1.44435e-16 	-1.3172e-16 20 	-1.49798e-16 	-1.1767e-16 20 	-1.49798e-16 	-1.1767e-16 20 	-1.49798e-16 	-1.1767e-16 20 	-1.08353e-16 	-5.80138e-17 20 	-2.04993e-16 	-1.66787e-16 20 	-2.14573e-16 	-1.89163e-16 20 	-2.14573e-16 	-1.89163e-16 20 	-2.14573e-16 	-1.89163e-16 20 	-1.34327e-16 	-1.18674e-16 20 	-6.83556e-17 	-1.23271e-16 20 	-7.43934e-17 	-1.20554e-16 20 	-7.43934e-17 	-1.20554e-16 20 	-7.43934e-17 	-1.20554e-16 20 	-1.50695e-16 	-1.11309e-16 20 	-2.14797e-16 	-7.43217e-17 20 	-2.45998e-16 	-4.24885e-17 20 	-2.45998e-16 	-4.24885e-17 20 	-2.45998e-16 	-4.24885e-17 20 	-2.3528e-16 	-2.5008e-17 20 	-3.37677e-16 	-2.2239e-17 20 	-4.19079e-16 	-2.3608e-17 20 	-4.19079e-16 	-2.3608e-17 20 	-4.19079e-16 	-2.3608e-17 20 	-4.55962e-16 	-2.87195e-17 20 	-5.51134e-16 	2.87091e-17 20 	-5.90259e-16 	5.5918e-17 20 	-5.90259e-16 	5.5918e-17 20 	-5.90259e-16 	5.5918e-17 20 	-5.62032e-16 	4.50443e-17 20 	-5.48116e-16 	1.09824e-16 20 	-4.67509e-16 	1.50782e-16 20 	-4.67509e-16 	1.50782e-16 20 	-4.67509e-16 	1.50782e-16 20 	-3.43504e-16 	1.56081e-16 20 	-3.01207e-16 	2.06598e-16 20 	-2.61055e-16 	1.89647e-16 20 	-2.61055e-16 	1.89647e-16 20 	-2.61055e-16 	1.89647e-16 20 	-2.34653e-16 	1.10127e-16 20 	-1.68665e-16 	1.61951e-16 20 	-1.60286e-16 	1.77038e-16 20 	-1.60286e-16 	1.77038e-16 20 	-1.60286e-16 	1.77038e-16 20 	-2.11936e-16 	1.51028e-16 20 	-4.59259e-17 	2.25232e-16 20 	5.22743e-18 	2.74334e-16 20 	5.22743e-18 	2.74334e-16 20 	5.22743e-18 	2.74334e-16 20 	-7.32588e-17 	2.84144e-16 20 	-2.40745e-17 	3.25236e-16 20 	-6.67732e-18 	3.71685e-16 20 	-1.63075e-17 	4.67522e-16 20 	-2.59376e-17 	5.6336e-16 20 	-5.47324e-17 	6.21796e-16