# vtk DataFile Version 2.0
track0
ASCII
DATASET POLYDATA
POINTS 1720 double
-1.001 -0.05 0.0011
-1.0008 -0.05 0.0011
-1.0006 -0.05 0.0011
-1.0004 -0.05 0.0011
-1.0002 -0.05 0.0011
-1 -0.05 0.0011
-0.8 -0.05 0.0011
-0.6 -0.05 0.0011
-0.4 -0.05 0.0011
-0.2 -0.05 0.0011
0 -0.05 0.0011
0.2 -0.05 0.0011
0.4 -0.05 0.0011
0.6 -0.05 0.0011
0.8 -0.05 0.0011
1 -0.05 0.0011
1.2 -0.05 0.0011
1.4 -0.05 0.0011
1.6 -0.05 0.0011
1.8 -0.05 0.0011
2 -0.05 0.0011
2.2 -0.05 0.0011
2.4 -0.05 0.0011
2.6 -0.05 0.0011
2.8 -0.05 0.0011
3 -0.05 0.0011
3.2 -0.05 0.0011
3.4 -0.05 0.0011
3.6 -0.05 0.0011
3.8 -0.05 0.0011
4 -0.05 0.0011
4.2 -0.05 0.0011
4.4 -0.05 0.0011
4.6 -0.05 0.0011
4.8 -0.05 0.0011
5 -0.05 0.0011
5.2 -0.05 0.0011
5.4 -0.05 0.0011
5.6 -0.05 0.0011
5.8 -0.05 0.0011
6 -0.05 0.0011
6.2 -0.05 0.0011
6.4 -0.05 0.0011
6.6 -0.05 0.0011
6.8 -0.05 0.0011
7 -0.05 0.0011
7.2 -0.05 0.0011
7.4 -0.05 0.0011
7.6 -0.05 0.0011
7.8 -0.05 0.0011
8 -0.05 0.0011
8.2 -0.05 0.0011
8.4 -0.05 0.0011
8.6 -0.05 0.0011
8.8 -0.05 0.0011
9 -0.05 0.0011
9.2 -0.05 0.0011
9.4 -0.05 0.0011
9.6 -0.05 0.0011
9.8 -0.05 0.0011
10 -0.05 0.0011
10.2 -0.05 0.0011
10.4 -0.05 0.0011
10.6 -0.05 0.0011
10.8 -0.05 0.0011
11 -0.05 0.0011
11.2 -0.05 0.0011
11.4 -0.05 0.0011
11.6 -0.05 0.0011
11.8 -0.05 0.0011
12 -0.05 0.0011
12.2 -0.05 0.0011
12.4 -0.05 0.0011
12.6 -0.05 0.0011
12.8 -0.05 0.0011
13 -0.05 0.0011
13.2 -0.05 0.0011
13.4 -0.05 0.0011
13.6 -0.05 0.0011
13.8 -0.05 0.0011
14 -0.05 0.0011
14.2 -0.05 0.0011
14.4 -0.05 0.0011
14.6 -0.05 0.0011
14.8 -0.05 0.0011
15 -0.05 0.0011
-1.001 -0.05 0.0537316
-1.0008 -0.05 0.0537316
-1.0006 -0.05 0.0537316
-1.0004 -0.05 0.0537316
-1.0002 -0.05 0.0537316
-1 -0.05 0.0537316
-0.8 -0.05 0.0537316
-0.6 -0.05 0.0537316
-0.4 -0.05 0.0537316
-0.2 -0.05 0.0537316
0 -0.05 0.0537316
0.2 -0.05 0.0537316
0.4 -0.05 0.0537316
0.6 -0.05 0.0537316
0.8 -0.05 0.0537316
1 -0.05 0.0537316
1.2 -0.05 0.0537316
1.4 -0.05 0.0537316
1.6 -0.05 0.0537316
1.8 -0.05 0.0537316
2 -0.05 0.0537316
2.2 -0.05 0.0537316
2.4 -0.05 0.0537316
2.6 -0.05 0.0537316
2.8 -0.05 0.0537316
3 -0.05 0.0537316
3.2 -0.05 0.0537316
3.4 -0.05 0.0537316
3.6 -0.05 0.0537316
3.8 -0.05 0.0537316
4 -0.05 0.0537316
4.2 -0.05 0.0537316
4.4 -0.05 0.0537316
4.6 -0.05 0.0537316
4.8 -0.05 0.0537316
5 -0.05 0.0537316
5.2 -0.05 0.0537316
5.4 -0.05 0.0537316
5.6 -0.05 0.0537316
5.8 -0.05 0.0537316
6 -0.05 0.0537316
6.2 -0.05 0.0537316
6.4 -0.05 0.0537316
6.6 -0.05 0.0537316
6.8 -0.05 0.0537316
7 -0.05 0.0537316
7.2 -0.05 0.0537316
7.4 -0.05 0.0537316
7.6 -0.05 0.0537316
7.8 -0.05 0.0537316
8 -0.05 0.0537316
8.2 -0.05 0.0537316
8.4 -0.05 0.0537316
8.6 -0.05 0.0537316
8.8 -0.05 0.0537316
9 -0.05 0.0537316
9.2 -0.05 0.0537316
9.4 -0.05 0.0537316
9.6 -0.05 0.0537316
9.8 -0.05 0.0537316
10 -0.05 0.0537316
10.2 -0.05 0.0537316
10.4 -0.05 0.0537316
10.6 -0.05 0.0537316
10.8 -0.05 0.0537316
11 -0.05 0.0537316
11.2 -0.05 0.0537316
11.4 -0.05 0.0537316
11.6 -0.05 0.0537316
11.8 -0.05 0.0537316
12 -0.05 0.0537316
12.2 -0.05 0.0537316
12.4 -0.05 0.0537316
12.6 -0.05 0.0537316
12.8 -0.05 0.0537316
13 -0.05 0.0537316
13.2 -0.05 0.0537316
13.4 -0.05 0.0537316
13.6 -0.05 0.0537316
13.8 -0.05 0.0537316
14 -0.05 0.0537316
14.2 -0.05 0.0537316
14.4 -0.05 0.0537316
14.6 -0.05 0.0537316
14.8 -0.05 0.0537316
15 -0.05 0.0537316
-1.001 -0.05 0.106363
-1.0008 -0.05 0.106363
-1.0006 -0.05 0.106363
-1.0004 -0.05 0.106363
-1.0002 -0.05 0.106363
-1 -0.05 0.106363
-0.8 -0.05 0.106363
-0.6 -0.05 0.106363
-0.4 -0.05 0.106363
-0.2 -0.05 0.106363
0 -0.05 0.106363
0.2 -0.05 0.106363
0.4 -0.05 0.106363
0.6 -0.05 0.106363
0.8 -0.05 0.106363
1 -0.05 0.106363
1.2 -0.05 0.106363
1.4 -0.05 0.106363
1.6 -0.05 0.106363
1.8 -0.05 0.106363
2 -0.05 0.106363
2.2 -0.05 0.106363
2.4 -0.05 0.106363
2.6 -0.05 0.106363
2.8 -0.05 0.106363
3 -0.05 0.106363
3.2 -0.05 0.106363
3.4 -0.05 0.106363
3.6 -0.05 0.106363
3.8 -0.05 0.106363
4 -0.05 0.106363
4.2 -0.05 0.106363
4.4 -0.05 0.106363
4.6 -0.05 0.106363
4.8 -0.05 0.106363
5 -0.05 0.106363
5.2 -0.05 0.106363
5.4 -0.05 0.106363
5.6 -0.05 0.106363
5.8 -0.05 0.106363
6 -0.05 0.106363
6.2 -0.05 0.106363
6.4 -0.05 0.106363
6.6 -0.05 0.106363
6.8 -0.05 0.106363
7 -0.05 0.106363
7.2 -0.05 0.106363
7.4 -0.05 0.106363
7.6 -0.05 0.106363
7.8 -0.05 0.106363
8 -0.05 0.106363
8.2 -0.05 0.106363
8.4 -0.05 0.106363
8.6 -0.05 0.106363
8.8 -0.05 0.106363
9 -0.05 0.106363
9.2 -0.05 0.106363
9.4 -0.05 0.106363
9.6 -0.05 0.106363
9.8 -0.05 0.106363
10 -0.05 0.106363
10.2 -0.05 0.106363
10.4 -0.05 0.106363
10.6 -0.05 0.106363
10.8 -0.05 0.106363
11 -0.05 0.106363
11.2 -0.05 0.106363
11.4 -0.05 0.106363
11.6 -0.05 0.106363
11.8 -0.05 0.106363
12 -0.05 0.106363
12.2 -0.05 0.106363
12.4 -0.05 0.106363
12.6 -0.05 0.106363
12.8 -0.05 0.106363
13 -0.05 0.106363
13.2 -0.05 0.106363
13.4 -0.05 0.106363
13.6 -0.05 0.106363
13.8 -0.05 0.106363
14 -0.05 0.106363
14.2 -0.05 0.106363
14.4 -0.05 0.106363
14.6 -0.05 0.106363
14.8 -0.05 0.106363
15 -0.05 0.106363
-1.001 -0.05 0.158995
-1.0008 -0.05 0.158995
-1.0006 -0.05 0.158995
-1.0004 -0.05 0.158995
-1.0002 -0.05 0.158995
-1 -0.05 0.158995
-0.8 -0.05 0.158995
-0.6 -0.05 0.158995
-0.4 -0.05 0.158995
-0.2 -0.05 0.158995
0 -0.05 0.158995
0.2 -0.05 0.158995
0.4 -0.05 0.158995
0.6 -0.05 0.158995
0.8 -0.05 0.158995
1 -0.05 0.158995
1.2 -0.05 0.158995
1.4 -0.05 0.158995
1.6 -0.05 0.158995
1.8 -0.05 0.158995
2 -0.05 0.158995
2.2 -0.05 0.158995
2.4 -0.05 0.158995
2.6 -0.05 0.158995
2.8 -0.05 0.158995
3 -0.05 0.158995
3.2 -0.05 0.158995
3.4 -0.05 0.158995
3.6 -0.05 0.158995
3.8 -0.05 0.158995
4 -0.05 0.158995
4.2 -0.05 0.158995
4.4 -0.05 0.158995
4.6 -0.05 0.158995
4.8 -0.05 0.158995
5 -0.05 0.158995
5.2 -0.05 0.158995
5.4 -0.05 0.158995
5.6 -0.05 0.158995
5.8 -0.05 0.158995
6 -0.05 0.158995
6.2 -0.05 0.158995
6.4 -0.05 0.158995
6.6 -0.05 0.158995
6.8 -0.05 0.158995
7 -0.05 0.158995
7.2 -0.05 0.158995
7.4 -0.05 0.158995
7.6 -0.05 0.158995
7.8 -0.05 0.158995
8 -0.05 0.158995
8.2 -0.05 0.158995
8.4 -0.05 0.158995
8.6 -0.05 0.158995
8.8 -0.05 0.158995
9 -0.05 0.158995
9.2 -0.05 0.158995
9.4 -0.05 0.158995
9.6 -0.05 0.158995
9.8 -0.05 0.158995
10 -0.05 0.158995
10.2 -0.05 0.158995
10.4 -0.05 0.158995
10.6 -0.05 0.158995
10.8 -0.05 0.158995
11 -0.05 0.158995
11.2 -0.05 0.158995
11.4 -0.05 0.158995
11.6 -0.05 0.158995
11.8 -0.05 0.158995
12 -0.05 0.158995
12.2 -0.05 0.158995
12.4 -0.05 0.158995
12.6 -0.05 0.158995
12.8 -0.05 0.158995
13 -0.05 0.158995
13.2 -0.05 0.158995
13.4 -0.05 0.158995
13.6 -0.05 0.158995
13.8 -0.05 0.158995
14 -0.05 0.158995
14.2 -0.05 0.158995
14.4 -0.05 0.158995
14.6 -0.05 0.158995
14.8 -0.05 0.158995
15 -0.05 0.158995
-1.001 -0.05 0.211626
-1.0008 -0.05 0.211626
-1.0006 -0.05 0.211626
-1.0004 -0.05 0.211626
-1.0002 -0.05 0.211626
-1 -0.05 0.211626
-0.8 -0.05 0.211626
-0.6 -0.05 0.211626
-0.4 -0.05 0.211626
-0.2 -0.05 0.211626
0 -0.05 0.211626
0.2 -0.05 0.211626
0.4 -0.05 0.211626
0.6 -0.05 0.211626
0.8 -0.05 0.211626
1 -0.05 0.211626
1.2 -0.05 0.211626
1.4 -0.05 0.211626
1.6 -0.05 0.211626
1.8 -0.05 0.211626
2 -0.05 0.211626
2.2 -0.05 0.211626
2.4 -0.05 0.211626
2.6 -0.05 0.211626
2.8 -0.05 0.211626
3 -0.05 0.211626
3.2 -0.05 0.211626
3.4 -0.05 0.211626
3.6 -0.05 0.211626
3.8 -0.05 0.211626
4 -0.05 0.211626
4.2 -0.05 0.211626
4.4 -0.05 0.211626
4.6 -0.05 0.211626
4.8 -0.05 0.211626
5 -0.05 0.211626
5.2 -0.05 0.211626
5.4 -0.05 0.211626
5.6 -0.05 0.211626
5.8 -0.05 0.211626
6 -0.05 0.211626
6.2 -0.05 0.211626
6.4 -0.05 0.211626
6.6 -0.05 0.211626
6.8 -0.05 0.211626
7 -0.05 0.211626
7.2 -0.05 0.211626
7.4 -0.05 0.211626
7.6 -0.05 0.211626
7.8 -0.05 0.211626
8 -0.05 0.211626
8.2 -0.05 0.211626
8.4 -0.05 0.211626
8.6 -0.05 0.211626
8.8 -0.05 0.211626
9 -0.05 0.211626
9.2 -0.05 0.211626
9.4 -0.05 0.211626
9.6 -0.05 0.211626
9.8 -0.05 0.211626
10 -0.05 0.211626
10.2 -0.05 0.211626
10.4 -0.05 0.211626
10.6 -0.05 0.211626
10.8 -0.05 0.211626
11 -0.05 0.211626
11.2 -0.05 0.211626
11.4 -0.05 0.211626
11.6 -0.05 0.211626
11.8 -0.05 0.211626
12 -0.05 0.211626
12.2 -0.05 0.211626
12.4 -0.05 0.211626
12.6 -0.05 0.211626
12.8 -0.05 0.211626
13 -0.05 0.211626
13.2 -0.05 0.211626
13.4 -0.05 0.211626
13.6 -0.05 0.211626
13.8 -0.05 0.211626
14 -0.05 0.211626
14.2 -0.05 0.211626
14.4 -0.05 0.211626
14.6 -0.05 0.211626
14.8 -0.05 0.211626
15 -0.05 0.211626
-1.001 -0.05 0.264258
-1.0008 -0.05 0.264258
-1.0006 -0.05 0.264258
-1.0004 -0.05 0.264258
-1.0002 -0.05 0.264258
-1 -0.05 0.264258
-0.8 -0.05 0.264258
-0.6 -0.05 0.264258
-0.4 -0.05 0.264258
-0.2 -0.05 0.264258
0 -0.05 0.264258
0.2 -0.05 0.264258
0.4 -0.05 0.264258
0.6 -0.05 0.264258
0.8 -0.05 0.264258
1 -0.05 0.264258
1.2 -0.05 0.264258
1.4 -0.05 0.264258
1.6 -0.05 0.264258
1.8 -0.05 0.264258
2 -0.05 0.264258
2.2 -0.05 0.264258
2.4 -0.05 0.264258
2.6 -0.05 0.264258
2.8 -0.05 0.264258
3 -0.05 0.264258
3.2 -0.05 0.264258
3.4 -0.05 0.264258
3.6 -0.05 0.264258
3.8 -0.05 0.264258
4 -0.05 0.264258
4.2 -0.05 0.264258
4.4 -0.05 0.264258
4.6 -0.05 0.264258
4.8 -0.05 0.264258
5 -0.05 0.264258
5.2 -0.05 0.264258
5.4 -0.05 0.264258
5.6 -0.05 0.264258
5.8 -0.05 0.264258
6 -0.05 0.264258
6.2 -0.05 0.264258
6.4 -0.05 0.264258
6.6 -0.05 0.264258
6.8 -0.05 0.264258
7 -0.05 0.264258
7.2 -0.05 0.264258
7.4 -0.05 0.264258
7.6 -0.05 0.264258
7.8 -0.05 0.264258
8 -0.05 0.264258
8.2 -0.05 0.264258
8.4 -0.05 0.264258
8.6 -0.05 0.264258
8.8 -0.05 0.264258
9 -0.05 0.264258
9.2 -0.05 0.264258
9.4 -0.05 0.264258
9.6 -0.05 0.264258
9.8 -0.05 0.264258
10 -0.05 0.264258
10.2 -0.05 0.264258
10.4 -0.05 0.264258
10.6 -0.05 0.264258
10.8 -0.05 0.264258
11 -0.05 0.264258
11.2 -0.05 0.264258
11.4 -0.05 0.264258
11.6 -0.05 0.264258
11.8 -0.05 0.264258
12 -0.05 0.264258
12.2 -0.05 0.264258
12.4 -0.05 0.264258
12.6 -0.05 0.264258
12.8 -0.05 0.264258
13 -0.05 0.264258
13.2 -0.05 0.264258
13.4 -0.05 0.264258
13.6 -0.05 0.264258
13.8 -0.05 0.264258
14 -0.05 0.264258
14.2 -0.05 0.264258
14.4 -0.05 0.264258
14.6 -0.05 0.264258
14.8 -0.05 0.264258
15 -0.05 0.264258
-1.001 -0.05 0.316889
-1.0008 -0.05 0.316889
-1.0006 -0.05 0.316889
-1.0004 -0.05 0.316889
[...]
POINT_DATA 1720
 FIELD attributes 2
p 1 1720 float
-1.68941e-13 -1.68938e-13 -1.68935e-13 -1.68931e-13 -1.68928e-13 -1.68924e-13 -1.67115e-13 -1.65298e-13 -1.6348e-13 -1.61663e-13 -1.59966e-13 -1.58417e-13 -1.56858e-13 -1.55299e-13 -1.53741e-13 -1.52288e-13 -1.50274e-13 -1.48258e-13 -1.46242e-13 -1.44226e-13 -1.422e-13 -1.39663e-13 -1.37111e-13 -1.3456e-13 -1.32009e-13 -1.29401e-13 -1.25981e-13 -1.22554e-13 -1.19126e-13 -1.15698e-13 -1.12284e-13 -1.09424e-13 -1.06566e-13 -1.03707e-13 -1.00849e-13 -9.8146e-14 -9.61963e-14 -9.42443e-14 -9.22923e-14 -9.03403e-14 -8.83441e-14 -8.54094e-14 -8.24715e-14 -7.95337e-14 -7.65959e-14 -7.35429e-14 -7.03234e-14 -6.71178e-14 -6.39123e-14 -6.07068e-14 -5.76812e-14 -5.57267e-14 -5.37766e-14 -5.18266e-14 -4.98765e-14 -4.79648e-14 -4.63062e-14 -4.46522e-14 -4.29982e-14 -4.13442e-14 -3.9703e-14 -3.8e-14 -3.62929e-14 -3.45858e-14 -3.28787e-14 -3.12014e-14 -2.88963e-14 -2.65947e-14 -2.42932e-14 -2.19917e-14 -1.95199e-14 -1.6618e-14 -1.37252e-14 -1.08324e-14 -7.9396e-15 -4.76819e-15 -3.26043e-15 -1.77182e-15 -2.83206e-16 1.20541e-15 2.5713e-15 2.33692e-15 2.0938e-15 1.85068e-15 1.60756e-15 1.13866e-15
-1.68858e-13 -1.68855e-13 -1.68852e-13 -1.68848e-13 -1.68845e-13 -1.68841e-13 -1.67404e-13 -1.65586e-13 -1.63769e-13 -1.61951e-13 -1.59837e-13 -1.58726e-13 -1.57167e-13 -1.55608e-13 -1.54049e-13 -1.52124e-13 -1.50221e-13 -1.48205e-13 -1.46189e-13 -1.44172e-13 -1.4204e-13 -1.40098e-13 -1.37547e-13 -1.34996e-13 -1.32444e-13 -1.29293e-13 -1.26241e-13 -1.22813e-13 -1.19385e-13 -1.15958e-13 -1.12284e-13 -1.09334e-13 -1.06476e-13 -1.03617e-13 -1.00759e-13 -9.8232e-14 -9.63872e-14 -9.44352e-14 -9.24832e-14 -9.05312e-14 -8.84503e-14 -8.56558e-14 -8.27179e-14 -7.97801e-14 -7.68423e-14 -7.36573e-14 -6.98204e-14 -6.66149e-14 -6.34093e-14 -6.02038e-14 -5.78576e-14 -5.57011e-14 -5.37511e-14 -5.1801e-14 -4.98509e-14 -4.80858e-14 -4.62115e-14 -4.45575e-14 -4.29035e-14 -4.12495e-14 -3.97085e-14 -3.81897e-14 -3.64826e-14 -3.47755e-14 -3.30684e-14 -3.12303e-14 -2.87652e-14 -2.64637e-14 -2.41622e-14 -2.18606e-14 -1.95404e-14 -1.62416e-14 -1.33488e-14 -1.0456e-14 -7.56315e-15 -4.87142e-15 -2.51847e-15 -1.02986e-15 4.5875e-16 1.94736e-15 2.37985e-15 2.54325e-15 2.30013e-15 2.05701e-15 1.81389e-15 1.07639e-15
-1.68775e-13 -1.68772e-13 -1.68768e-13 -1.68765e-13 -1.68762e-13 -1.68758e-13 -1.67274e-13 -1.65457e-13 -1.63639e-13 -1.61822e-13 -1.59707e-13 -1.58561e-13 -1.57002e-13 -1.55443e-13 -1.53885e-13 -1.51959e-13 -1.50061e-13 -1.48044e-13 -1.46028e-13 -1.44012e-13 -1.4188e-13 -1.3999e-13 -1.37439e-13 -1.34888e-13 -1.32337e-13 -1.29185e-13 -1.2624e-13 -1.22813e-13 -1.19385e-13 -1.15957e-13 -1.12283e-13 -1.0942e-13 -1.06562e-13 -1.03703e-13 -1.00845e-13 -9.83181e-14 -9.64935e-14 -9.45415e-14 -9.25895e-14 -9.06375e-14 -8.85566e-14 -8.57703e-14 -8.28324e-14 -7.98946e-14 -7.69567e-14 -7.37718e-14 -6.99968e-14 -6.67913e-14 -6.35857e-14 -6.03802e-14 -5.80341e-14 -5.58221e-14 -5.3872e-14 -5.19219e-14 -4.99719e-14 -4.82067e-14 -4.6217e-14 -4.4563e-14 -4.29091e-14 -4.12551e-14 -3.97141e-14 -3.82186e-14 -3.65115e-14 -3.48044e-14 -3.30973e-14 -3.12592e-14 -2.87857e-14 -2.64842e-14 -2.41826e-14 -2.18811e-14 -1.95608e-14 -1.63448e-14 -1.3452e-14 -1.05592e-14 -7.66638e-15 -4.97466e-15 -2.70992e-15 -1.22131e-15 2.67299e-16 1.75591e-15 2.1884e-15 2.48098e-15 2.23786e-15 1.99474e-15 1.75162e-15 1.01413e-15
-1.68692e-13 -1.68689e-13 -1.68685e-13 -1.68682e-13 -1.68679e-13 -1.68675e-13 -1.67145e-13 -1.65328e-13 -1.6351e-13 -1.61693e-13 -1.59578e-13 -1.58396e-13 -1.56838e-13 -1.55279e-13 -1.5372e-13 -1.51794e-13 -1.499e-13 -1.47884e-13 -1.45868e-13 -1.43851e-13 -1.41719e-13 -1.39882e-13 -1.37331e-13 -1.3478e-13 -1.32229e-13 -1.29078e-13 -1.2624e-13 -1.22812e-13 -1.19384e-13 -1.15956e-13 -1.12282e-13 -1.09506e-13 -1.06648e-13 -1.0379e-13 -1.00931e-13 -9.84041e-14 -9.65997e-14 -9.46477e-14 -9.26957e-14 -9.07437e-14 -8.86628e-14 -8.58847e-14 -8.29469e-14 -8.00091e-14 -7.70712e-14 -7.38863e-14 -7.01732e-14 -6.69677e-14 -6.37622e-14 -6.05566e-14 -5.82105e-14 -5.5943e-14 -5.3993e-14 -5.20429e-14 -5.00928e-14 -4.83277e-14 -4.62226e-14 -4.45686e-14 -4.29146e-14 -4.12607e-14 -3.97197e-14 -3.82475e-14 -3.65404e-14 -3.48333e-14 -3.31262e-14 -3.12881e-14 -2.88062e-14 -2.65046e-14 -2.42031e-14 -2.19016e-14 -1.95813e-14 -1.6448e-14 -1.35552e-14 -1.06624e-14 -7.76961e-15 -5.07789e-15 -2.90138e-15 -1.41276e-15 7.58482e-17 1.56446e-15 1.99695e-15 2.41872e-15 2.1756e-15 1.93248e-15 1.68936e-15 9.5186e-16
-1.68609e-13 -1.68606e-13 -1.68602e-13 -1.68599e-13 -1.68595e-13 -1.68592e-13 -1.67026e-13 -1.65198e-13 -1.63381e-13 -1.61563e-13 -1.59449e-13 -1.58239e-13 -1.56673e-13 -1.55114e-13 -1.53555e-13 -1.5163e-13 -1.49739e-13 -1.47723e-13 -1.45707e-13 -1.43691e-13 -1.41559e-13 -1.39763e-13 -1.37223e-13 -1.34672e-13 -1.32121e-13 -1.2897e-13 -1.26215e-13 -1.22811e-13 -1.19383e-13 -1.15955e-13 -1.12281e-13 -1.09573e-13 -1.06734e-13 -1.03876e-13 -1.01017e-13 -9.84902e-14 -9.67015e-14 -9.4754e-14 -9.2802e-14 -9.085e-14 -8.87691e-14 -8.59974e-14 -8.30614e-14 -8.01235e-14 -7.71857e-14 -7.40008e-14 -7.03359e-14 -6.71441e-14 -6.39386e-14 -6.0733e-14 -5.83869e-14 -5.60762e-14 -5.41139e-14 -5.21638e-14 -5.02138e-14 -4.84486e-14 -4.62537e-14 -4.45742e-14 -4.29202e-14 -4.12662e-14 -3.97253e-14 -3.82713e-14 -3.65693e-14 -3.48623e-14 -3.31552e-14 -3.1317e-14 -2.88285e-14 -2.65251e-14 -2.42236e-14 -2.19221e-14 -1.96018e-14 -1.6533e-14 -1.36585e-14 -1.07656e-14 -7.87284e-15 -5.18112e-15 -3.07334e-15 -1.60421e-15 -1.15603e-16 1.37301e-15 1.8055e-15 2.32791e-15 2.11333e-15 1.87021e-15 1.62709e-15 8.89593e-16
-1.68526e-13 -1.68523e-13 -1.68519e-13 -1.68516e-13 -1.68512e-13 -1.68509e-13 -1.66943e-13 -1.65069e-13 -1.63252e-13 -1.61434e-13 -1.5932e-13 -1.5811e-13 -1.56508e-13 -1.5495e-13 -1.53391e-13 -1.51465e-13 -1.49574e-13 -1.47563e-13 -1.45547e-13 -1.4353e-13 -1.41398e-13 -1.39602e-13 -1.37115e-13 -1.34564e-13 -1.32013e-13 -1.28862e-13 -1.26107e-13 -1.2281e-13 -1.19383e-13 -1.15955e-13 -1.12281e-13 -1.09572e-13 -1.0682e-13 -1.03962e-13 -1.01103e-13 -9.85762e-14 -9.67876e-14 -9.48602e-14 -9.29082e-14 -9.09562e-14 -8.88753e-14 -8.61036e-14 -8.31758e-14 -8.0238e-14 -7.73002e-14 -7.41152e-14 -7.04504e-14 -6.73205e-14 -6.4115e-14 -6.09094e-14 -5.85633e-14 -5.62526e-14 -5.42349e-14 -5.22848e-14 -5.03347e-14 -4.85696e-14 -4.63746e-14 -4.45798e-14 -4.29258e-14 -4.12718e-14 -3.97309e-14 -3.82769e-14 -3.65983e-14 -3.48912e-14 -3.31841e-14 -3.13459e-14 -2.88574e-14 -2.65456e-14 -2.42441e-14 -2.19425e-14 -1.96222e-14 -1.65535e-14 -1.37617e-14 -1.08689e-14 -7.97607e-15 -5.28435e-15 -3.17657e-15 -1.79567e-15 -3.07054e-16 1.18156e-15 1.61405e-15 2.13646e-15 2.05106e-15 1.80794e-15 1.56482e-15 8.27326e-16
-1.68443e-13 -1.68439e-13 -1.68436e-13 -1.68433e-13 -1.68429e-13 -1.68426e-13 -1.6686e-13 -1.6494e-13 -1.63122e-13 -1.61305e-13 -1.5919e-13 -1.57981e-13 -1.56344e-13 -1.54785e-13 -1.53226e-13 -1.513e-13 -1.4941e-13 -1.47402e-13 -1.45386e-13 -1.4337e-13 -1.41238e-13 -1.39442e-13 -1.37008e-13 -1.34456e-13 -1.31905e-13 -1.28754e-13 -1.26e-13 -1.2281e-13 -1.19382e-13 -1.15954e-13 -1.1228e-13 -1.09572e-13 -1.06906e-13 -1.04048e-13 -1.01189e-13 -9.86623e-14 -9.68736e-14 -9.49665e-14 -9.30145e-14 -9.10625e-14 -8.89816e-14 -8.62099e-14 -8.32903e-14 -8.03525e-14 -7.74146e-14 -7.42297e-14 -7.05649e-14 -6.74969e-14 -6.42914e-14 -6.10859e-14 -5.87397e-14 -5.64291e-14 -5.43558e-14 -5.24057e-14 -5.04557e-14 -4.86905e-14 -4.64956e-14 -4.45854e-14 -4.29314e-14 -4.12774e-14 -3.97364e-14 -3.82825e-14 -3.66272e-14 -3.49201e-14 -3.3213e-14 -3.13748e-14 -2.88863e-14 -2.6566e-14 -2.42645e-14 -2.1963e-14 -1.96427e-14 -1.65739e-14 -1.38649e-14 -1.09721e-14 -8.0793e-15 -5.38758e-15 -3.2798e-15 -1.98712e-15 -4.98505e-16 9.90107e-16 1.4226e-15 1.94501e-15 1.98879e-15 1.74567e-15 1.50255e-15 7.65058e-16
-1.6836e-13 -1.68356e-13 -1.68353e-13 -1.6835e-13 -1.68346e-13 -1.68343e-13 -1.66777e-13 -1.64811e-13 -1.62993e-13 -1.61176e-13 -1.59061e-13 -1.57852e-13 -1.56179e-13 -1.5462e-13 -1.53061e-13 -1.51136e-13 -1.49245e-13 -1.47242e-13 -1.45226e-13 -1.4321e-13 -1.41077e-13 -1.39281e-13 -1.369e-13 -1.34349e-13 -1.31797e-13 -1.28646e-13 -1.25892e-13 -1.22809e-13 -1.19381e-13 -1.15953e-13 -1.12279e-13 -1.09571e-13 -1.06992e-13 -1.04134e-13 -1.01275e-13 -9.87484e-14 -9.69597e-14 -9.50727e-14 -9.31207e-14 -9.11687e-14 -8.90879e-14 -8.63162e-14 -8.34048e-14 -8.0467e-14 -7.75291e-14 -7.43442e-14 -7.06794e-14 -6.76733e-14 -6.44678e-14 -6.12623e-14 -5.89161e-14 -5.66055e-14 -5.44768e-14 -5.25267e-14 -5.05766e-14 -4.88114e-14 -4.66165e-14 -4.4591e-14 -4.2937e-14 -4.1283e-14 -3.9742e-14 -3.8288e-14 -3.66561e-14 -3.4949e-14 -3.32419e-14 -3.14037e-14 -2.89152e-14 -2.65865e-14 -2.4285e-14 -2.19835e-14 -1.96632e-14 -1.65944e-14 -1.39681e-14 -1.10753e-14 -8.18253e-15 -5.49081e-15 -3.38303e-15 -2.17857e-15 -6.89956e-16 7.98656e-16 1.23115e-15 1.75356e-15 1.92653e-15 1.68341e-15 1.44029e-15 7.02791e-16
-1.68277e-13 -1.68273e-13 -1.6827e-13 -1.68267e-13 -1.68263e-13 -1.6826e-13 -1.66694e-13 -1.64701e-13 -1.62864e-13 -1.61046e-13 -1.58932e-13 -1.57723e-13 -1.56029e-13 -1.54456e-13 -1.52897e-13 -1.50971e-13 -1.4908e-13 -1.4708e-13 -1.45065e-13 -1.43049e-13 -1.40917e-13 -1.39121e-13 -1.3677e-13 -1.34241e-13 -1.3169e-13 -1.28538e-13 -1.25784e-13 -1.22763e-13 -1.1938e-13 -1.15953e-13 -1.12279e-13 -1.0957e-13 -1.07042e-13 -1.0422e-13 -1.01362e-13 -9.88344e-14 -9.70457e-14 -9.51705e-14 -9.3227e-14 -9.1275e-14 -8.91941e-14 -8.64224e-14 -8.35158e-14 -8.05814e-14 -7.76436e-14 -7.44587e-14 -7.07938e-14 -6.78237e-14 -6.46442e-14 -6.14387e-14 -5.90925e-14 -5.67819e-14 -5.4621e-14 -5.26476e-14 -5.06975e-14 -4.89324e-14 -4.67375e-14 -4.46451e-14 -4.29425e-14 -4.12886e-14 -3.97476e-14 -3.82936e-14 -3.66752e-14 -3.49779e-14 -3.32708e-14 -3.14326e-14 -2.89441e-14 -2.66105e-14 -2.43055e-14 -2.20039e-14 -1.96836e-14 -1.66149e-14 -1.40365e-14 -1.11786e-14 -8.28576e-15 -5.59404e-15 -3.48626e-15 -2.33289e-15 -8.81407e-16 6.07204e-16 1.03969e-15 1.56211e-15 1.80989e-15 1.62114e-15 1.37802e-15 6.40524e-16
-1.68194e-13 -1.6819e-13 -1.68187e-13 -1.68183e-13 -1.6818e-13 -1.68177e-13 -1.66611e-13 -1.64618e-13 -1.62735e-13 -1.60917e-13 -1.58803e-13 -1.57593e-13 -1.559e-13 -1.54291e-13 -1.52732e-13 -1.50807e-13 -1.48916e-13 -1.46915e-13 -1.44905e-13 -1.42889e-13 -1.40756e-13 -1.3896e-13 -1.36609e-13 -1.34133e-13 -1.31582e-13 -1.2843e-13 -1.25676e-13 -1.22655e-13 -1.1938e-13 -1.15952e-13 -1.12278e-13 -1.09569e-13 -1.07041e-13 -1.04306e-13 -1.01448e-13 -9.89205e-14 -9.71318e-14 -9.52565e-14 -9.33332e-14 -9.13812e-14 -8.93004e-14 -8.65287e-14 -8.36221e-14 -8.06959e-14 -7.77581e-14 -7.45731e-14 -7.09083e-14 -6.79381e-14 -6.48206e-14 -6.16151e-14 -5.92689e-14 -5.69583e-14 -5.47975e-14 -5.27686e-14 -5.08185e-14 -4.90533e-14 -4.68584e-14 -4.4766e-14 -4.29481e-14 -4.12941e-14 -3.97532e-14 -3.82992e-14 -3.66807e-14 -3.50068e-14 -3.32997e-14 -3.14615e-14 -2.8973e-14 -2.66394e-14 -2.43259e-14 -2.20244e-14 -1.97041e-14 -1.66353e-14 -1.4057e-14 -1.12818e-14 -8.38899e-15 -5.69727e-15 -3.58949e-15 -2.43612e-15 -1.07286e-15 4.15753e-16 8.48243e-16 1.37066e-15 1.61844e-15 1.55887e-15 1.31575e-15 5.78257e-16
-1.68111e-13 -1.68107e-13 -1.68104e-13 -1.681e-13 -1.68097e-13 -1.68094e-13 -1.66528e-13 -1.64535e-13 -1.62605e-13 -1.60788e-13 -1.58674e-13 -1.57464e-13 -1.55771e-13 -1.54126e-13 -1.52568e-13 -1.50642e-13 -1.48751e-13 -1.46751e-13 -1.44744e-13 -1.42728e-13 -1.40596e-13 -1.388e-13 -1.36449e-13 -1.34025e-13 -1.31474e-13 -1.28323e-13 -1.25568e-13 -1.22547e-13 -1.19379e-13 -1.15951e-13 -1.12277e-13 -1.09569e-13 -1.0704e-13 -1.04392e-13 -1.01534e-13 -9.90065e-14 -9.72179e-14 -9.53426e-14 -9.34395e-14 -9.14875e-14 -8.94066e-14 -8.66349e-14 -8.37283e-14 -8.08104e-14 -7.78725e-14 -7.46876e-14 -7.10228e-14 -6.80526e-14 -6.4997e-14 -6.17915e-14 -5.94453e-14 -5.71347e-14 -5.49739e-14 -5.28895e-14 -5.09394e-14 -4.91743e-14 -4.69794e-14 -4.4887e-14 -4.29537e-14 -4.12997e-14 -3.97588e-14 -3.83048e-14 -3.66863e-14 -3.50357e-14 -3.33286e-14 -3.14905e-14 -2.90019e-14 -2.66684e-14 -2.43464e-14 -2.20449e-14 -1.97246e-14 -1.66558e-14 -1.40775e-14 -1.1385e-14 -8.49222e-15 -5.8005e-15 -3.69272e-15 -2.53935e-15 -1.26431e-15 2.24302e-16 6.56792e-16 1.17921e-15 1.42698e-15 1.49661e-15 1.25348e-15 5.15989e-16
-1.68027e-13 -1.68024e-13 -1.68021e-13 -1.68017e-13 -1.68014e-13 -1.68011e-13 -1.66445e-13 -1.64452e-13 -1.62476e-13 -1.60659e-13 -1.58544e-13 -1.57335e-13 -1.55642e-13 -1.53962e-13 -1.52403e-13 -1.50477e-13 -1.48586e-13 -1.46586e-13 -1.44584e-13 -1.42568e-13 -1.40435e-13 -1.38639e-13 -1.36288e-13 -1.33917e-13 -1.31366e-13 -1.28215e-13 -1.2546e-13 -1.2244e-13 -1.19378e-13 -1.1595e-13 -1.12276e-13 -1.09568e-13 -1.07039e-13 -1.04478e-13 -1.0162e-13 -9.90926e-14 -9.73039e-14 -9.54287e-14 -9.35457e-14 -9.15937e-14 -8.95129e-14 -8.67412e-14 -8.38346e-14 -8.09249e-14 -7.7987e-14 -7.48021e-14 -7.11373e-14 -6.81671e-14 -6.51734e-14 -6.19679e-14 -5.96217e-14 -5.73111e-14 -5.51503e-14 -5.30105e-14 -5.10604e-14 -4.92952e-14 -4.71003e-14 -4.50079e-14 -4.29593e-14 -4.13053e-14 -3.97643e-14 -3.83104e-14 -3.66919e-14 -3.50646e-14 -3.33575e-14 -3.15194e-14 -2.90309e-14 -2.66973e-14 -2.43669e-14 -2.20653e-14 -1.97451e-14 -1.66763e-14 -1.4098e-14 -1.14883e-14 -8.59546e-15 -5.90373e-15 -3.79595e-15 -2.64258e-15 -1.45576e-15 3.28512e-17 4.65341e-16 9.87756e-16 1.23553e-15 1.43434e-15 1.19122e-15 4.53722e-16
-1.67944e-13 -1.67941e-13 -1.67938e-13 -1.67934e-13 -1.67931e-13 -1.67927e-13 -1.66361e-13 -1.64369e-13 -1.62376e-13 -1.60529e-13 -1.58415e-13 -1.57206e-13 -1.55512e-13 -1.53819e-13 -1.52238e-13 -1.50313e-13 -1.48422e-13 -1.46421e-13 -1.44421e-13 -1.42407e-13 -1.40275e-13 -1.38479e-13 -1.36128e-13 -1.33777e-13 -1.31258e-13 -1.28107e-13 -1.25353e-13 -1.22332e-13 -1.19311e-13 -1.1595e-13 -1.12276e-13 -1.09567e-13 -1.07039e-13 -1.0451e-13 -1.01706e-13 -9.91786e-14 -9.739e-14 -9.55147e-14 -9.36395e-14 -9.17e-14 -8.96191e-14 -8.68474e-14 -8.39408e-14 -8.10342e-14 -7.81015e-14 -7.49166e-14 -7.12517e-14 -6.82816e-14 -6.53114e-14 -6.21443e-14 -5.97982e-14 -5.74875e-14 -5.53267e-14 -5.31658e-14 -5.11813e-14 -4.94162e-14 -4.72213e-14 -4.51289e-14 -4.30365e-14 -4.13109e-14 -3.97699e-14 -3.83159e-14 -3.66975e-14 -3.5079e-14 -3.33864e-14 -3.15483e-14 -2.90598e-14 -2.67262e-14 -2.43926e-14 -2.20858e-14 -1.97655e-14 -1.66967e-14 -1.41184e-14 -1.15401e-14 -8.69869e-15 -6.00696e-15 -3.89919e-15 -2.74581e-15 -1.59244e-15 -1.586e-16 2.7389e-16 7.96305e-16 1.04408e-15 1.29186e-15 1.12895e-15 3.91455e-16
-1.67861e-13 -1.67858e-13 -1.67855e-13 -1.67851e-13 -1.67848e-13 -1.67844e-13 -1.66278e-13 -1.64285e-13 -1.62293e-13 -1.604e-13 -1.58286e-13 -1.57076e-13 -1.55383e-13 -1.5369e-13 -1.52074e-13 -1.50148e-13 -1.48257e-13 -1.46257e-13 -1.44256e-13 -1.42247e-13 -1.40114e-13 -1.38318e-13 -1.35967e-13 -1.33616e-13 -1.3115e-13 -1.27999e-13 -1.25245e-13 -1.22224e-13 -1.19203e-13 -1.15949e-13 -1.12275e-13 -1.09566e-13 -1.07038e-13 -1.04509e-13 -1.01792e-13 -9.92647e-14 -9.7476e-14 -9.56008e-14 -9.37255e-14 -9.18063e-14 -8.97254e-14 -8.69537e-14 -8.40471e-14 -8.11405e-14 -7.8216e-14 -7.5031e-14 -7.13662e-14 -6.8396e-14 -6.54259e-14 -6.23207e-14 -5.99746e-14 -5.76639e-14 -5.55031e-14 -5.33423e-14 -5.13023e-14 -4.95371e-14 -4.73422e-14 -4.52498e-14 -4.31574e-14 -4.13165e-14 -3.97755e-14 -3.83215e-14 -3.67031e-14 -3.50846e-14 -3.34153e-14 -3.15772e-14 -2.90887e-14 -2.67551e-14 -2.44215e-14 -2.21063e-14 -1.9786e-14 -1.67172e-14 -1.41389e-14 -1.15606e-14 -8.80192e-15 -6.1102e-15 -4.00242e-15 -2.84904e-15 -1.69567e-15 -3.50051e-16 8.24387e-17 6.04853e-16 8.52631e-16 1.10041e-15 1.06668e-15 3.29188e-16
-1.67778e-13 -1.67775e-13 -1.67771e-13 -1.67768e-13 -1.67765e-13 -1.67761e-13 -1.66195e-13 -1.64202e-13 -1.62209e-13 -1.60271e-13 -1.58157e-13 -1.56947e-13 -1.55254e-13 -1.53561e-13 -1.51909e-13 -1.49984e-13 -1.48093e-13 -1.46092e-13 -1.44092e-13 -1.42086e-13 -1.39954e-13 -1.38158e-13 -1.35807e-13 -1.33456e-13 -1.31043e-13 -1.27891e-13 -1.25137e-13 -1.22116e-13 -1.19095e-13 -1.15948e-13 -1.12274e-13 -1.09566e-13 -1.07037e-13 -1.04509e-13 -1.01878e-13 -9.93507e-14 -9.75621e-14 -9.56868e-14 -9.38116e-14 -9.19125e-14 -8.98316e-14 -8.70599e-14 -8.41533e-14 -8.12467e-14 -7.83304e-14 -7.51455e-14 -7.14807e-14 -6.85105e-14 -6.55403e-14 -6.24971e-14 -6.0151e-14 -5.78403e-14 -5.56795e-14 -5.35187e-14 -5.14232e-14 -4.96581e-14 -4.74632e-14 -4.53708e-14 -4.32784e-14 -4.1322e-14 -3.97811e-14 -3.83271e-14 -3.67087e-14 -3.50902e-14 -3.34442e-14 -3.16061e-14 -2.91176e-14 -2.6784e-14 -2.44504e-14 -2.21268e-14 -1.98065e-14 -1.67377e-14 -1.41594e-14 -1.1581e-14 -8.90515e-15 -6.21343e-15 -4.10565e-15 -2.95227e-15 -1.7989e-15 -5.41502e-16 -1.09012e-16 4.13402e-16 6.6118e-16 9.08958e-16 1.00442e-15 2.6692e-16
-1.67695e-13 -1.67692e-13 -1.67688e-13 -1.67685e-13 -1.67682e-13 -1.67678e-13 -1.66112e-13 -1.64119e-13 -1.62126e-13 -1.60142e-13 -1.58027e-13 -1.56818e-13 -1.55125e-13 -1.53431e-13 -1.51745e-13 -1.49819e-13 -1.47928e-13 -1.45928e-13 -1.43927e-13 -1.41926e-13 -1.39793e-13 -1.37998e-13 -1.35646e-13 -1.33295e-13 -1.30935e-13 -1.27783e-13 -1.25029e-13 -1.22008e-13 -1.18987e-13 -1.15948e-13 -1.12273e-13 -1.09565e-13 -1.07037e-13 -1.04508e-13 -1.01964e-13 -9.94368e-14 -9.76481e-14 -9.57729e-14 -9.38976e-14 -9.20188e-14 -8.99379e-14 -8.71662e-14 -8.42596e-14 -8.1353e-14 -7.84449e-14 -7.526e-14 -7.15952e-14 -6.8625e-14 -6.56548e-14 -6.26735e-14 -6.03274e-14 -5.80167e-14 -5.58559e-14 -5.36951e-14 -5.15442e-14 -4.9779e-14 -4.75841e-14 -4.54917e-14 -4.33993e-14 -4.13276e-14 -3.97867e-14 -3.83327e-14 -3.67142e-14 -3.50958e-14 -3.34732e-14 -3.1635e-14 -2.91465e-14 -2.68129e-14 -2.44793e-14 -2.21472e-14 -1.98269e-14 -1.67582e-14 -1.41798e-14 -1.16015e-14 -9.00838e-15 -6.31666e-15 -4.20888e-15 -3.0555e-15 -1.90213e-15 -7.32953e-16 -3.00463e-16 2.21951e-16 4.69729e-16 7.17507e-16 9.42148e-16 2.04653e-16
-1.67612e-13 -1.67609e-13 -1.67605e-13 -1.67602e-13 -1.67598e-13 -1.67595e-13 -1.66029e-13 -1.64036e-13 -1.62043e-13 -1.6005e-13 -1.57898e-13 -1.56689e-13 -1.54995e-13 -1.53302e-13 -1.51609e-13 -1.49654e-13 -1.47763e-13 -1.45763e-13 -1.43762e-13 -1.41762e-13 -1.39633e-13 -1.37837e-13 -1.35486e-13 -1.33135e-13 -1.30784e-13 -1.27676e-13 -1.24921e-13 -1.219e-13 -1.1888e-13 -1.15859e-13 -1.12273e-13 -1.09564e-13 -1.07036e-13 -1.04507e-13 -1.01979e-13 -9.95229e-14 -9.77342e-14 -9.58589e-14 -9.39837e-14 -9.21084e-14 -9.00441e-14 -8.72724e-14 -8.43658e-14 -8.14592e-14 -7.85526e-14 -7.53745e-14 -7.17096e-14 -6.87395e-14 -6.57693e-14 -6.27991e-14 -6.05038e-14 -5.81932e-14 -5.60323e-14 -5.38715e-14 -5.17107e-14 -4.99e-14 -4.7705e-14 -4.56127e-14 -4.35203e-14 -4.14279e-14 -3.97923e-14 -3.83383e-14 -3.67198e-14 -3.51014e-14 -3.34829e-14 -3.16639e-14 -2.91754e-14 -2.68418e-14 -2.45082e-14 -2.21746e-14 -1.98474e-14 -1.67786e-14 -1.42003e-14 -1.1622e-14 -9.04367e-15 -6.41989e-15 -4.31211e-15 -3.15873e-15 -2.00536e-15 -8.51984e-16 -4.91915e-16 3.05002e-17 2.78278e-16 5.26056e-16 7.73834e-16 1.42386e-16
-1.67529e-13 -1.67526e-13 -1.67522e-13 -1.67519e-13 -1.67515e-13 -1.67512e-13 -1.65946e-13 -1.63953e-13 -1.6196e-13 -1.59967e-13 -1.57769e-13 -1.56559e-13 -1.54866e-13 -1.53173e-13 -1.5148e-13 -1.4949e-13 -1.47599e-13 -1.45598e-13 -1.43598e-13 -1.41597e-13 -1.39472e-13 -1.37677e-13 -1.35325e-13 -1.32974e-13 -1.30623e-13 -1.27568e-13 -1.24813e-13 -1.21793e-13 -1.18772e-13 -1.15751e-13 -1.12272e-13 -1.09564e-13 -1.07035e-13 -1.04507e-13 -1.01978e-13 -9.96089e-14 -9.78202e-14 -9.5945e-14 -9.40697e-14 -9.21945e-14 -9.01504e-14 -8.73787e-14 -8.44721e-14 -8.15655e-14 -7.86589e-14 -7.54889e-14 -7.18241e-14 -6.88539e-14 -6.58838e-14 -6.29136e-14 -6.06802e-14 -5.83696e-14 -5.62087e-14 -5.40479e-14 -5.18871e-14 -5.00209e-14 -4.7826e-14 -4.57336e-14 -4.36412e-14 -4.15488e-14 -3.97978e-14 -3.83438e-14 -3.67254e-14 -3.51069e-14 -3.34885e-14 -3.16928e-14 -2.92043e-14 -2.68707e-14 -2.45371e-14 -2.22035e-14 -1.98679e-14 -1.67991e-14 -1.42208e-14 -1.16425e-14 -9.06414e-15 -6.52312e-15 -4.41534e-15 -3.26196e-15 -2.10859e-15 -9.55215e-16 -6.83366e-16 -1.60951e-16 8.68271e-17 3.34605e-16 5.82383e-16 8.01186e-17