# vtk DataFile Version 2.0
track0
ASCII
DATASET POLYDATA
POINTS 1720 double
-1.001 -0.05 0.0011
-1.0008 -0.05 0.0011
-1.0006 -0.05 0.0011
-1.0004 -0.05 0.0011
-1.0002 -0.05 0.0011
-1 -0.05 0.0011
-0.8 -0.05 0.0011
-0.6 -0.05 0.0011
-0.4 -0.05 0.0011
-0.2 -0.05 0.0011
0 -0.05 0.0011
0.2 -0.05 0.0011
0.4 -0.05 0.0011
0.6 -0.05 0.0011
0.8 -0.05 0.0011
1 -0.05 0.0011
1.2 -0.05 0.0011
1.4 -0.05 0.0011
1.6 -0.05 0.0011
1.8 -0.05 0.0011
2 -0.05 0.0011
2.2 -0.05 0.0011
2.4 -0.05 0.0011
2.6 -0.05 0.0011
2.8 -0.05 0.0011
3 -0.05 0.0011
3.2 -0.05 0.0011
3.4 -0.05 0.0011
3.6 -0.05 0.0011
3.8 -0.05 0.0011
4 -0.05 0.0011
4.2 -0.05 0.0011
4.4 -0.05 0.0011
4.6 -0.05 0.0011
4.8 -0.05 0.0011
5 -0.05 0.0011
5.2 -0.05 0.0011
5.4 -0.05 0.0011
5.6 -0.05 0.0011
5.8 -0.05 0.0011
6 -0.05 0.0011
6.2 -0.05 0.0011
6.4 -0.05 0.0011
6.6 -0.05 0.0011
6.8 -0.05 0.0011
7 -0.05 0.0011
7.2 -0.05 0.0011
7.4 -0.05 0.0011
7.6 -0.05 0.0011
7.8 -0.05 0.0011
8 -0.05 0.0011
8.2 -0.05 0.0011
8.4 -0.05 0.0011
8.6 -0.05 0.0011
8.8 -0.05 0.0011
9 -0.05 0.0011
9.2 -0.05 0.0011
9.4 -0.05 0.0011
9.6 -0.05 0.0011
9.8 -0.05 0.0011
10 -0.05 0.0011
10.2 -0.05 0.0011
10.4 -0.05 0.0011
10.6 -0.05 0.0011
10.8 -0.05 0.0011
11 -0.05 0.0011
11.2 -0.05 0.0011
11.4 -0.05 0.0011
11.6 -0.05 0.0011
11.8 -0.05 0.0011
12 -0.05 0.0011
12.2 -0.05 0.0011
12.4 -0.05 0.0011
12.6 -0.05 0.0011
12.8 -0.05 0.0011
13 -0.05 0.0011
13.2 -0.05 0.0011
13.4 -0.05 0.0011
13.6 -0.05 0.0011
13.8 -0.05 0.0011
14 -0.05 0.0011
14.2 -0.05 0.0011
14.4 -0.05 0.0011
14.6 -0.05 0.0011
14.8 -0.05 0.0011
15 -0.05 0.0011
-1.001 -0.05 0.0537316
-1.0008 -0.05 0.0537316
-1.0006 -0.05 0.0537316
-1.0004 -0.05 0.0537316
-1.0002 -0.05 0.0537316
-1 -0.05 0.0537316
-0.8 -0.05 0.0537316
-0.6 -0.05 0.0537316
-0.4 -0.05 0.0537316
-0.2 -0.05 0.0537316
0 -0.05 0.0537316
0.2 -0.05 0.0537316
0.4 -0.05 0.0537316
0.6 -0.05 0.0537316
0.8 -0.05 0.0537316
1 -0.05 0.0537316
1.2 -0.05 0.0537316
1.4 -0.05 0.0537316
1.6 -0.05 0.0537316
1.8 -0.05 0.0537316
2 -0.05 0.0537316
2.2 -0.05 0.0537316
2.4 -0.05 0.0537316
2.6 -0.05 0.0537316
2.8 -0.05 0.0537316
3 -0.05 0.0537316
3.2 -0.05 0.0537316
3.4 -0.05 0.0537316
3.6 -0.05 0.0537316
3.8 -0.05 0.0537316
4 -0.05 0.0537316
4.2 -0.05 0.0537316
4.4 -0.05 0.0537316
4.6 -0.05 0.0537316
4.8 -0.05 0.0537316
5 -0.05 0.0537316
5.2 -0.05 0.0537316
5.4 -0.05 0.0537316
5.6 -0.05 0.0537316
5.8 -0.05 0.0537316
6 -0.05 0.0537316
6.2 -0.05 0.0537316
6.4 -0.05 0.0537316
6.6 -0.05 0.0537316
6.8 -0.05 0.0537316
7 -0.05 0.0537316
7.2 -0.05 0.0537316
7.4 -0.05 0.0537316
7.6 -0.05 0.0537316
7.8 -0.05 0.0537316
8 -0.05 0.0537316
8.2 -0.05 0.0537316
8.4 -0.05 0.0537316
8.6 -0.05 0.0537316
8.8 -0.05 0.0537316
9 -0.05 0.0537316
9.2 -0.05 0.0537316
9.4 -0.05 0.0537316
9.6 -0.05 0.0537316
9.8 -0.05 0.0537316
10 -0.05 0.0537316
10.2 -0.05 0.0537316
10.4 -0.05 0.0537316
10.6 -0.05 0.0537316
10.8 -0.05 0.0537316
11 -0.05 0.0537316
11.2 -0.05 0.0537316
11.4 -0.05 0.0537316
11.6 -0.05 0.0537316
11.8 -0.05 0.0537316
12 -0.05 0.0537316
12.2 -0.05 0.0537316
12.4 -0.05 0.0537316
12.6 -0.05 0.0537316
12.8 -0.05 0.0537316
13 -0.05 0.0537316
13.2 -0.05 0.0537316
13.4 -0.05 0.0537316
13.6 -0.05 0.0537316
13.8 -0.05 0.0537316
14 -0.05 0.0537316
14.2 -0.05 0.0537316
14.4 -0.05 0.0537316
14.6 -0.05 0.0537316
14.8 -0.05 0.0537316
15 -0.05 0.0537316
-1.001 -0.05 0.106363
-1.0008 -0.05 0.106363
-1.0006 -0.05 0.106363
-1.0004 -0.05 0.106363
-1.0002 -0.05 0.106363
-1 -0.05 0.106363
-0.8 -0.05 0.106363
-0.6 -0.05 0.106363
-0.4 -0.05 0.106363
-0.2 -0.05 0.106363
0 -0.05 0.106363
0.2 -0.05 0.106363
0.4 -0.05 0.106363
0.6 -0.05 0.106363
0.8 -0.05 0.106363
1 -0.05 0.106363
1.2 -0.05 0.106363
1.4 -0.05 0.106363
1.6 -0.05 0.106363
1.8 -0.05 0.106363
2 -0.05 0.106363
2.2 -0.05 0.106363
2.4 -0.05 0.106363
2.6 -0.05 0.106363
2.8 -0.05 0.106363
3 -0.05 0.106363
3.2 -0.05 0.106363
3.4 -0.05 0.106363
3.6 -0.05 0.106363
3.8 -0.05 0.106363
4 -0.05 0.106363
4.2 -0.05 0.106363
4.4 -0.05 0.106363
4.6 -0.05 0.106363
4.8 -0.05 0.106363
5 -0.05 0.106363
5.2 -0.05 0.106363
5.4 -0.05 0.106363
5.6 -0.05 0.106363
5.8 -0.05 0.106363
6 -0.05 0.106363
6.2 -0.05 0.106363
6.4 -0.05 0.106363
6.6 -0.05 0.106363
6.8 -0.05 0.106363
7 -0.05 0.106363
7.2 -0.05 0.106363
7.4 -0.05 0.106363
7.6 -0.05 0.106363
7.8 -0.05 0.106363
8 -0.05 0.106363
8.2 -0.05 0.106363
8.4 -0.05 0.106363
8.6 -0.05 0.106363
8.8 -0.05 0.106363
9 -0.05 0.106363
9.2 -0.05 0.106363
9.4 -0.05 0.106363
9.6 -0.05 0.106363
9.8 -0.05 0.106363
10 -0.05 0.106363
10.2 -0.05 0.106363
10.4 -0.05 0.106363
10.6 -0.05 0.106363
10.8 -0.05 0.106363
11 -0.05 0.106363
11.2 -0.05 0.106363
11.4 -0.05 0.106363
11.6 -0.05 0.106363
11.8 -0.05 0.106363
12 -0.05 0.106363
12.2 -0.05 0.106363
12.4 -0.05 0.106363
12.6 -0.05 0.106363
12.8 -0.05 0.106363
13 -0.05 0.106363
13.2 -0.05 0.106363
13.4 -0.05 0.106363
13.6 -0.05 0.106363
13.8 -0.05 0.106363
14 -0.05 0.106363
14.2 -0.05 0.106363
14.4 -0.05 0.106363
14.6 -0.05 0.106363
14.8 -0.05 0.106363
15 -0.05 0.106363
-1.001 -0.05 0.158995
-1.0008 -0.05 0.158995
-1.0006 -0.05 0.158995
-1.0004 -0.05 0.158995
-1.0002 -0.05 0.158995
-1 -0.05 0.158995
-0.8 -0.05 0.158995
-0.6 -0.05 0.158995
-0.4 -0.05 0.158995
-0.2 -0.05 0.158995
0 -0.05 0.158995
0.2 -0.05 0.158995
0.4 -0.05 0.158995
0.6 -0.05 0.158995
0.8 -0.05 0.158995
1 -0.05 0.158995
1.2 -0.05 0.158995
1.4 -0.05 0.158995
1.6 -0.05 0.158995
1.8 -0.05 0.158995
2 -0.05 0.158995
2.2 -0.05 0.158995
2.4 -0.05 0.158995
2.6 -0.05 0.158995
2.8 -0.05 0.158995
3 -0.05 0.158995
3.2 -0.05 0.158995
3.4 -0.05 0.158995
3.6 -0.05 0.158995
3.8 -0.05 0.158995
4 -0.05 0.158995
4.2 -0.05 0.158995
4.4 -0.05 0.158995
4.6 -0.05 0.158995
4.8 -0.05 0.158995
5 -0.05 0.158995
5.2 -0.05 0.158995
5.4 -0.05 0.158995
5.6 -0.05 0.158995
5.8 -0.05 0.158995
6 -0.05 0.158995
6.2 -0.05 0.158995
6.4 -0.05 0.158995
6.6 -0.05 0.158995
6.8 -0.05 0.158995
7 -0.05 0.158995
7.2 -0.05 0.158995
7.4 -0.05 0.158995
7.6 -0.05 0.158995
7.8 -0.05 0.158995
8 -0.05 0.158995
8.2 -0.05 0.158995
8.4 -0.05 0.158995
8.6 -0.05 0.158995
8.8 -0.05 0.158995
9 -0.05 0.158995
9.2 -0.05 0.158995
9.4 -0.05 0.158995
9.6 -0.05 0.158995
9.8 -0.05 0.158995
10 -0.05 0.158995
10.2 -0.05 0.158995
10.4 -0.05 0.158995
10.6 -0.05 0.158995
10.8 -0.05 0.158995
11 -0.05 0.158995
11.2 -0.05 0.158995
11.4 -0.05 0.158995
11.6 -0.05 0.158995
11.8 -0.05 0.158995
12 -0.05 0.158995
12.2 -0.05 0.158995
12.4 -0.05 0.158995
12.6 -0.05 0.158995
12.8 -0.05 0.158995
13 -0.05 0.158995
13.2 -0.05 0.158995
13.4 -0.05 0.158995
13.6 -0.05 0.158995
13.8 -0.05 0.158995
14 -0.05 0.158995
14.2 -0.05 0.158995
14.4 -0.05 0.158995
14.6 -0.05 0.158995
14.8 -0.05 0.158995
15 -0.05 0.158995
-1.001 -0.05 0.211626
-1.0008 -0.05 0.211626
-1.0006 -0.05 0.211626
-1.0004 -0.05 0.211626
-1.0002 -0.05 0.211626
-1 -0.05 0.211626
-0.8 -0.05 0.211626
-0.6 -0.05 0.211626
-0.4 -0.05 0.211626
-0.2 -0.05 0.211626
0 -0.05 0.211626
0.2 -0.05 0.211626
0.4 -0.05 0.211626
0.6 -0.05 0.211626
0.8 -0.05 0.211626
1 -0.05 0.211626
1.2 -0.05 0.211626
1.4 -0.05 0.211626
1.6 -0.05 0.211626
1.8 -0.05 0.211626
2 -0.05 0.211626
2.2 -0.05 0.211626
2.4 -0.05 0.211626
2.6 -0.05 0.211626
2.8 -0.05 0.211626
3 -0.05 0.211626
3.2 -0.05 0.211626
3.4 -0.05 0.211626
3.6 -0.05 0.211626
3.8 -0.05 0.211626
4 -0.05 0.211626
4.2 -0.05 0.211626
4.4 -0.05 0.211626
4.6 -0.05 0.211626
4.8 -0.05 0.211626
5 -0.05 0.211626
5.2 -0.05 0.211626
5.4 -0.05 0.211626
5.6 -0.05 0.211626
5.8 -0.05 0.211626
6 -0.05 0.211626
6.2 -0.05 0.211626
6.4 -0.05 0.211626
6.6 -0.05 0.211626
6.8 -0.05 0.211626
7 -0.05 0.211626
7.2 -0.05 0.211626
7.4 -0.05 0.211626
7.6 -0.05 0.211626
7.8 -0.05 0.211626
8 -0.05 0.211626
8.2 -0.05 0.211626
8.4 -0.05 0.211626
8.6 -0.05 0.211626
8.8 -0.05 0.211626
9 -0.05 0.211626
9.2 -0.05 0.211626
9.4 -0.05 0.211626
9.6 -0.05 0.211626
9.8 -0.05 0.211626
10 -0.05 0.211626
10.2 -0.05 0.211626
10.4 -0.05 0.211626
10.6 -0.05 0.211626
10.8 -0.05 0.211626
11 -0.05 0.211626
11.2 -0.05 0.211626
11.4 -0.05 0.211626
11.6 -0.05 0.211626
11.8 -0.05 0.211626
12 -0.05 0.211626
12.2 -0.05 0.211626
12.4 -0.05 0.211626
12.6 -0.05 0.211626
12.8 -0.05 0.211626
13 -0.05 0.211626
13.2 -0.05 0.211626
13.4 -0.05 0.211626
13.6 -0.05 0.211626
13.8 -0.05 0.211626
14 -0.05 0.211626
14.2 -0.05 0.211626
14.4 -0.05 0.211626
14.6 -0.05 0.211626
14.8 -0.05 0.211626
15 -0.05 0.211626
-1.001 -0.05 0.264258
-1.0008 -0.05 0.264258
-1.0006 -0.05 0.264258
-1.0004 -0.05 0.264258
-1.0002 -0.05 0.264258
-1 -0.05 0.264258
-0.8 -0.05 0.264258
-0.6 -0.05 0.264258
-0.4 -0.05 0.264258
-0.2 -0.05 0.264258
0 -0.05 0.264258
0.2 -0.05 0.264258
0.4 -0.05 0.264258
0.6 -0.05 0.264258
0.8 -0.05 0.264258
1 -0.05 0.264258
1.2 -0.05 0.264258
1.4 -0.05 0.264258
1.6 -0.05 0.264258
1.8 -0.05 0.264258
2 -0.05 0.264258
2.2 -0.05 0.264258
2.4 -0.05 0.264258
2.6 -0.05 0.264258
2.8 -0.05 0.264258
3 -0.05 0.264258
3.2 -0.05 0.264258
3.4 -0.05 0.264258
3.6 -0.05 0.264258
3.8 -0.05 0.264258
4 -0.05 0.264258
4.2 -0.05 0.264258
4.4 -0.05 0.264258
4.6 -0.05 0.264258
4.8 -0.05 0.264258
5 -0.05 0.264258
5.2 -0.05 0.264258
5.4 -0.05 0.264258
5.6 -0.05 0.264258
5.8 -0.05 0.264258
6 -0.05 0.264258
6.2 -0.05 0.264258
6.4 -0.05 0.264258
6.6 -0.05 0.264258
6.8 -0.05 0.264258
7 -0.05 0.264258
7.2 -0.05 0.264258
7.4 -0.05 0.264258
7.6 -0.05 0.264258
7.8 -0.05 0.264258
8 -0.05 0.264258
8.2 -0.05 0.264258
8.4 -0.05 0.264258
8.6 -0.05 0.264258
8.8 -0.05 0.264258
9 -0.05 0.264258
9.2 -0.05 0.264258
9.4 -0.05 0.264258
9.6 -0.05 0.264258
9.8 -0.05 0.264258
10 -0.05 0.264258
10.2 -0.05 0.264258
10.4 -0.05 0.264258
10.6 -0.05 0.264258
10.8 -0.05 0.264258
11 -0.05 0.264258
11.2 -0.05 0.264258
11.4 -0.05 0.264258
11.6 -0.05 0.264258
11.8 -0.05 0.264258
12 -0.05 0.264258
12.2 -0.05 0.264258
12.4 -0.05 0.264258
12.6 -0.05 0.264258
12.8 -0.05 0.264258
13 -0.05 0.264258
13.2 -0.05 0.264258
13.4 -0.05 0.264258
13.6 -0.05 0.264258
13.8 -0.05 0.264258
14 -0.05 0.264258
14.2 -0.05 0.264258
14.4 -0.05 0.264258
14.6 -0.05 0.264258
14.8 -0.05 0.264258
15 -0.05 0.264258
-1.001 -0.05 0.316889
-1.0008 -0.05 0.316889
-1.0006 -0.05 0.316889
-1.0004 -0.05 0.316889
[...]
POINT_DATA 1720
 FIELD attributes 2
p 1 1720 float
-1.74467e-13 -1.74461e-13 -1.74455e-13 -1.74449e-13 -1.74442e-13 -1.74436e-13 -1.72153e-13 -1.69886e-13 -1.67618e-13 -1.65351e-13 -1.62866e-13 -1.64666e-13 -1.66467e-13 -1.68269e-13 -1.70071e-13 -1.71572e-13 -1.70555e-13 -1.69524e-13 -1.68493e-13 -1.67463e-13 -1.66338e-13 -1.60999e-13 -1.55642e-13 -1.50284e-13 -1.44927e-13 -1.39676e-13 -1.34485e-13 -1.29297e-13 -1.2411e-13 -1.18922e-13 -1.13662e-13 -1.09487e-13 -1.05313e-13 -1.01138e-13 -9.6964e-14 -9.2962e-14 -8.85018e-14 -8.40303e-14 -7.95588e-14 -7.50873e-14 -7.08446e-14 -6.77879e-14 -6.47312e-14 -6.16744e-14 -5.86177e-14 -5.5542e-14 -5.46856e-14 -5.38439e-14 -5.30023e-14 -5.21607e-14 -5.14637e-14 -4.85526e-14 -4.56302e-14 -4.27078e-14 -3.97854e-14 -3.69833e-14 -3.46074e-14 -3.22469e-14 -2.98864e-14 -2.75259e-14 -2.52272e-14 -2.72538e-14 -2.92793e-14 -3.13048e-14 -3.33304e-14 -3.54716e-14 -3.50136e-14 -3.45299e-14 -3.40462e-14 -3.35625e-14 -3.29962e-14 -2.77197e-14 -2.24379e-14 -1.71561e-14 -1.18742e-14 -6.52583e-15 -3.57741e-15 -6.4266e-16 2.29209e-15 5.22684e-15 8.12124e-15 7.14788e-15 6.15649e-15 5.1651e-15 4.1737e-15 3.3888e-15
-1.7427e-13 -1.74263e-13 -1.74257e-13 -1.74251e-13 -1.74245e-13 -1.74239e-13 -1.71267e-13 -1.69e-13 -1.66733e-13 -1.64465e-13 -1.62922e-13 -1.64632e-13 -1.66433e-13 -1.68235e-13 -1.70037e-13 -1.71511e-13 -1.71072e-13 -1.70041e-13 -1.69011e-13 -1.6798e-13 -1.66139e-13 -1.61631e-13 -1.56273e-13 -1.50916e-13 -1.45558e-13 -1.39621e-13 -1.34276e-13 -1.29088e-13 -1.23901e-13 -1.18713e-13 -1.13596e-13 -1.09417e-13 -1.05243e-13 -1.01069e-13 -9.68943e-14 -9.28486e-14 -8.88963e-14 -8.44248e-14 -7.99533e-14 -7.54818e-14 -7.07656e-14 -6.7721e-14 -6.46642e-14 -6.16075e-14 -5.85508e-14 -5.56307e-14 -5.41202e-14 -5.32786e-14 -5.2437e-14 -5.15954e-14 -5.16377e-14 -4.92427e-14 -4.63203e-14 -4.33979e-14 -4.04755e-14 -3.73603e-14 -3.42945e-14 -3.1934e-14 -2.95735e-14 -2.7213e-14 -2.55468e-14 -2.75861e-14 -2.96116e-14 -3.16372e-14 -3.36627e-14 -3.52898e-14 -3.59637e-14 -3.548e-14 -3.49963e-14 -3.45126e-14 -3.26526e-14 -2.76465e-14 -2.23647e-14 -1.70829e-14 -1.18011e-14 -6.62929e-15 -3.08973e-15 -1.54981e-16 2.77977e-15 5.71452e-15 7.78691e-15 7.62543e-15 6.63404e-15 5.64265e-15 4.65126e-15 3.20105e-15
-1.74072e-13 -1.74066e-13 -1.7406e-13 -1.74053e-13 -1.74047e-13 -1.74041e-13 -1.71323e-13 -1.69056e-13 -1.66789e-13 -1.64522e-13 -1.62978e-13 -1.6457e-13 -1.66372e-13 -1.68174e-13 -1.69975e-13 -1.7145e-13 -1.70873e-13 -1.69842e-13 -1.68811e-13 -1.67781e-13 -1.65939e-13 -1.61576e-13 -1.56219e-13 -1.50861e-13 -1.45504e-13 -1.39566e-13 -1.3421e-13 -1.29022e-13 -1.23835e-13 -1.18648e-13 -1.13531e-13 -1.09304e-13 -1.0513e-13 -1.00955e-13 -9.67809e-14 -9.27352e-14 -8.88173e-14 -8.43458e-14 -7.98743e-14 -7.54027e-14 -7.06866e-14 -6.78097e-14 -6.47529e-14 -6.16962e-14 -5.86395e-14 -5.57194e-14 -5.42942e-14 -5.34526e-14 -5.2611e-14 -5.17694e-14 -5.18117e-14 -4.96198e-14 -4.66973e-14 -4.37749e-14 -4.08525e-14 -3.77373e-14 -3.46141e-14 -3.22536e-14 -2.98931e-14 -2.75326e-14 -2.58664e-14 -2.74043e-14 -2.94298e-14 -3.14553e-14 -3.34809e-14 -3.51079e-14 -3.56201e-14 -3.51364e-14 -3.46527e-14 -3.4169e-14 -3.2309e-14 -2.775e-14 -2.24682e-14 -1.71864e-14 -1.19045e-14 -6.73275e-15 -3.42406e-15 -4.89311e-16 2.44544e-15 5.38019e-15 7.45258e-15 7.43768e-15 6.44629e-15 5.4549e-15 4.46351e-15 3.0133e-15
-1.73874e-13 -1.73868e-13 -1.73862e-13 -1.73856e-13 -1.7385e-13 -1.73843e-13 -1.7138e-13 -1.69112e-13 -1.66845e-13 -1.64578e-13 -1.63035e-13 -1.64509e-13 -1.66311e-13 -1.68112e-13 -1.69914e-13 -1.71388e-13 -1.70673e-13 -1.69643e-13 -1.68612e-13 -1.67581e-13 -1.6574e-13 -1.61521e-13 -1.56164e-13 -1.50806e-13 -1.45449e-13 -1.39511e-13 -1.34144e-13 -1.28957e-13 -1.23769e-13 -1.18582e-13 -1.13465e-13 -1.09191e-13 -1.05016e-13 -1.00842e-13 -9.66675e-14 -9.26218e-14 -8.87383e-14 -8.42667e-14 -7.97952e-14 -7.53237e-14 -7.06075e-14 -6.78984e-14 -6.48416e-14 -6.17849e-14 -5.87282e-14 -5.58081e-14 -5.44682e-14 -5.36266e-14 -5.27849e-14 -5.19433e-14 -5.19856e-14 -4.99968e-14 -4.70743e-14 -4.41519e-14 -4.12295e-14 -3.81143e-14 -3.49337e-14 -3.25732e-14 -3.02127e-14 -2.78523e-14 -2.6186e-14 -2.72225e-14 -2.9248e-14 -3.12735e-14 -3.3299e-14 -3.49261e-14 -3.52765e-14 -3.47928e-14 -3.43091e-14 -3.38254e-14 -3.19654e-14 -2.78534e-14 -2.25716e-14 -1.72898e-14 -1.2008e-14 -6.83621e-15 -3.75839e-15 -8.2364e-16 2.11111e-15 5.04586e-15 7.11825e-15 7.24993e-15 6.25854e-15 5.26715e-15 4.27575e-15 2.82554e-15
-1.73677e-13 -1.73671e-13 -1.73664e-13 -1.73658e-13 -1.73652e-13 -1.73646e-13 -1.7138e-13 -1.69169e-13 -1.66901e-13 -1.64634e-13 -1.63091e-13 -1.64474e-13 -1.66249e-13 -1.68051e-13 -1.69853e-13 -1.71327e-13 -1.70504e-13 -1.69443e-13 -1.68413e-13 -1.67382e-13 -1.65541e-13 -1.61435e-13 -1.56109e-13 -1.50752e-13 -1.45394e-13 -1.39457e-13 -1.34081e-13 -1.28891e-13 -1.23704e-13 -1.18516e-13 -1.134e-13 -1.09088e-13 -1.04903e-13 -1.00728e-13 -9.65541e-14 -9.25084e-14 -8.86516e-14 -8.41877e-14 -7.97162e-14 -7.52447e-14 -7.05285e-14 -6.795e-14 -6.49304e-14 -6.18736e-14 -5.88169e-14 -5.58969e-14 -5.46233e-14 -5.38005e-14 -5.29589e-14 -5.21173e-14 -5.21596e-14 -5.03289e-14 -4.74513e-14 -4.45289e-14 -4.16065e-14 -3.84913e-14 -3.5266e-14 -3.28929e-14 -3.05324e-14 -2.81719e-14 -2.65057e-14 -2.71514e-14 -2.90662e-14 -3.10917e-14 -3.31172e-14 -3.47443e-14 -3.49687e-14 -3.44492e-14 -3.39655e-14 -3.34818e-14 -3.16219e-14 -2.78582e-14 -2.26751e-14 -1.73933e-14 -1.21115e-14 -6.93967e-15 -4.04172e-15 -1.15797e-15 1.77678e-15 4.71153e-15 6.78392e-15 7.0298e-15 6.07078e-15 5.07939e-15 4.088e-15 2.63779e-15
-1.73479e-13 -1.73473e-13 -1.73467e-13 -1.73461e-13 -1.73454e-13 -1.73448e-13 -1.71182e-13 -1.69225e-13 -1.66958e-13 -1.6469e-13 -1.63147e-13 -1.6453e-13 -1.66188e-13 -1.6799e-13 -1.69792e-13 -1.71266e-13 -1.70443e-13 -1.69244e-13 -1.68213e-13 -1.67182e-13 -1.65341e-13 -1.61235e-13 -1.56054e-13 -1.50697e-13 -1.4534e-13 -1.39402e-13 -1.34027e-13 -1.28826e-13 -1.23638e-13 -1.18451e-13 -1.13334e-13 -1.09022e-13 -1.04789e-13 -1.00615e-13 -9.64407e-14 -9.2395e-14 -8.85382e-14 -8.41087e-14 -7.96372e-14 -7.51656e-14 -7.04495e-14 -6.7871e-14 -6.50191e-14 -6.19623e-14 -5.89056e-14 -5.59856e-14 -5.4712e-14 -5.39745e-14 -5.31329e-14 -5.22912e-14 -5.23335e-14 -5.05029e-14 -4.78284e-14 -4.49059e-14 -4.19835e-14 -3.88683e-14 -3.5643e-14 -3.32125e-14 -3.0852e-14 -2.84915e-14 -2.68253e-14 -2.74711e-14 -2.88844e-14 -3.09099e-14 -3.29354e-14 -3.45625e-14 -3.47869e-14 -3.41057e-14 -3.3622e-14 -3.31383e-14 -3.12783e-14 -2.75146e-14 -2.27786e-14 -1.74967e-14 -1.22149e-14 -7.04313e-15 -4.14518e-15 -1.4923e-15 1.44245e-15 4.3772e-15 6.44959e-15 6.69547e-15 5.88303e-15 4.89164e-15 3.90025e-15 2.45004e-15
-1.73282e-13 -1.73275e-13 -1.73269e-13 -1.73263e-13 -1.73257e-13 -1.73251e-13 -1.70985e-13 -1.69281e-13 -1.67014e-13 -1.64747e-13 -1.63204e-13 -1.64586e-13 -1.66127e-13 -1.67929e-13 -1.6973e-13 -1.71204e-13 -1.70382e-13 -1.69044e-13 -1.68014e-13 -1.66983e-13 -1.65142e-13 -1.61036e-13 -1.56e-13 -1.50642e-13 -1.45285e-13 -1.39347e-13 -1.33972e-13 -1.2876e-13 -1.23573e-13 -1.18385e-13 -1.13269e-13 -1.08957e-13 -1.04676e-13 -1.00502e-13 -9.63273e-14 -9.22816e-14 -8.84248e-14 -8.40297e-14 -7.95581e-14 -7.50866e-14 -7.03705e-14 -6.7792e-14 -6.51078e-14 -6.2051e-14 -5.89943e-14 -5.60743e-14 -5.48007e-14 -5.41484e-14 -5.33068e-14 -5.24652e-14 -5.25075e-14 -5.06768e-14 -4.82054e-14 -4.52829e-14 -4.23605e-14 -3.92453e-14 -3.602e-14 -3.35321e-14 -3.11716e-14 -2.88111e-14 -2.71449e-14 -2.77907e-14 -2.87026e-14 -3.07281e-14 -3.27536e-14 -3.43807e-14 -3.4605e-14 -3.37621e-14 -3.32784e-14 -3.27947e-14 -3.09347e-14 -2.7171e-14 -2.2882e-14 -1.76002e-14 -1.23184e-14 -7.14659e-15 -4.24864e-15 -1.82663e-15 1.10812e-15 4.04287e-15 6.11526e-15 6.36114e-15 5.69528e-15 4.70389e-15 3.7125e-15 2.26229e-15
-1.73084e-13 -1.73078e-13 -1.73072e-13 -1.73066e-13 -1.73059e-13 -1.73053e-13 -1.70787e-13 -1.69338e-13 -1.6707e-13 -1.64803e-13 -1.6326e-13 -1.64643e-13 -1.66065e-13 -1.67867e-13 -1.69669e-13 -1.71143e-13 -1.70321e-13 -1.68845e-13 -1.67814e-13 -1.66784e-13 -1.64942e-13 -1.60836e-13 -1.55945e-13 -1.50587e-13 -1.4523e-13 -1.39293e-13 -1.33917e-13 -1.28695e-13 -1.23507e-13 -1.1832e-13 -1.13203e-13 -1.08891e-13 -1.04563e-13 -1.00388e-13 -9.62139e-14 -9.21682e-14 -8.83114e-14 -8.39506e-14 -7.94791e-14 -7.50076e-14 -7.02914e-14 -6.77129e-14 -6.51965e-14 -6.21397e-14 -5.9083e-14 -5.6163e-14 -5.48894e-14 -5.43224e-14 -5.34808e-14 -5.26392e-14 -5.26815e-14 -5.08508e-14 -4.85824e-14 -4.56599e-14 -4.27375e-14 -3.96223e-14 -3.6397e-14 -3.38517e-14 -3.14912e-14 -2.91307e-14 -2.74645e-14 -2.81103e-14 -2.85208e-14 -3.05463e-14 -3.25718e-14 -3.41989e-14 -3.44232e-14 -3.34185e-14 -3.29348e-14 -3.24511e-14 -3.05911e-14 -2.68274e-14 -2.29855e-14 -1.77037e-14 -1.24218e-14 -7.25005e-15 -4.3521e-15 -2.16096e-15 7.73793e-16 3.70854e-15 5.78093e-15 6.02681e-15 5.50753e-15 4.51614e-15 3.52474e-15 2.07453e-15
-1.72887e-13 -1.7288e-13 -1.72874e-13 -1.72868e-13 -1.72862e-13 -1.72856e-13 -1.7059e-13 -1.69287e-13 -1.67127e-13 -1.64859e-13 -1.63316e-13 -1.64699e-13 -1.66054e-13 -1.67806e-13 -1.69608e-13 -1.71082e-13 -1.70259e-13 -1.68704e-13 -1.67615e-13 -1.66584e-13 -1.64743e-13 -1.60637e-13 -1.55829e-13 -1.50533e-13 -1.45175e-13 -1.39238e-13 -1.33862e-13 -1.28634e-13 -1.23442e-13 -1.18254e-13 -1.13138e-13 -1.08826e-13 -1.04469e-13 -1.00275e-13 -9.61005e-14 -9.20548e-14 -8.81981e-14 -8.38571e-14 -7.94001e-14 -7.49286e-14 -7.02124e-14 -6.76339e-14 -6.52146e-14 -6.22285e-14 -5.91717e-14 -5.62517e-14 -5.49781e-14 -5.44605e-14 -5.36547e-14 -5.28131e-14 -5.28554e-14 -5.10247e-14 -4.88739e-14 -4.60369e-14 -4.31145e-14 -3.99994e-14 -3.6774e-14 -3.41955e-14 -3.18108e-14 -2.94503e-14 -2.77841e-14 -2.84299e-14 -2.855e-14 -3.03645e-14 -3.239e-14 -3.40171e-14 -3.42414e-14 -3.3143e-14 -3.25912e-14 -3.21076e-14 -3.02476e-14 -2.64839e-14 -2.29008e-14 -1.78071e-14 -1.25253e-14 -7.35351e-15 -4.45556e-15 -2.39812e-15 4.39463e-16 3.37421e-15 5.4466e-15 5.69248e-15 5.25808e-15 4.32838e-15 3.33699e-15 1.88678e-15
-1.72689e-13 -1.72683e-13 -1.72677e-13 -1.7267e-13 -1.72664e-13 -1.72658e-13 -1.70392e-13 -1.6909e-13 -1.67183e-13 -1.64916e-13 -1.63372e-13 -1.64755e-13 -1.6611e-13 -1.67745e-13 -1.69546e-13 -1.71021e-13 -1.70198e-13 -1.68643e-13 -1.67416e-13 -1.66385e-13 -1.64544e-13 -1.60438e-13 -1.5563e-13 -1.50478e-13 -1.45121e-13 -1.39183e-13 -1.33808e-13 -1.28579e-13 -1.23376e-13 -1.18189e-13 -1.13072e-13 -1.0876e-13 -1.04404e-13 -1.00162e-13 -9.59871e-14 -9.19414e-14 -8.80847e-14 -8.37437e-14 -7.9321e-14 -7.48495e-14 -7.01334e-14 -6.75549e-14 -6.51356e-14 -6.23172e-14 -5.92604e-14 -5.63404e-14 -5.50668e-14 -5.45492e-14 -5.38287e-14 -5.29871e-14 -5.30294e-14 -5.11987e-14 -4.90479e-14 -4.6414e-14 -4.34915e-14 -4.03764e-14 -3.7151e-14 -3.45725e-14 -3.21304e-14 -2.97699e-14 -2.81037e-14 -2.87495e-14 -2.88696e-14 -3.01827e-14 -3.22082e-14 -3.38353e-14 -3.40596e-14 -3.29612e-14 -3.22477e-14 -3.1764e-14 -2.9904e-14 -2.61403e-14 -2.25572e-14 -1.79106e-14 -1.26288e-14 -7.45697e-15 -4.55902e-15 -2.50158e-15 1.05134e-16 3.03989e-15 5.11227e-15 5.35815e-15 4.92375e-15 4.14063e-15 3.14924e-15 1.69903e-15
-1.72491e-13 -1.72485e-13 -1.72479e-13 -1.72473e-13 -1.72467e-13 -1.7246e-13 -1.70195e-13 -1.68892e-13 -1.67239e-13 -1.64972e-13 -1.63429e-13 -1.64811e-13 -1.66166e-13 -1.67683e-13 -1.69485e-13 -1.70959e-13 -1.70137e-13 -1.68581e-13 -1.67216e-13 -1.66185e-13 -1.64344e-13 -1.60238e-13 -1.5543e-13 -1.50423e-13 -1.45066e-13 -1.39128e-13 -1.33753e-13 -1.28525e-13 -1.23311e-13 -1.18123e-13 -1.13007e-13 -1.08695e-13 -1.04338e-13 -1.00048e-13 -9.58737e-14 -9.1828e-14 -8.79713e-14 -8.36303e-14 -7.9242e-14 -7.47705e-14 -7.00543e-14 -6.74759e-14 -6.50565e-14 -6.24059e-14 -5.93491e-14 -5.64291e-14 -5.51555e-14 -5.46379e-14 -5.40027e-14 -5.3161e-14 -5.32033e-14 -5.13727e-14 -4.92218e-14 -4.6791e-14 -4.38685e-14 -4.07534e-14 -3.75281e-14 -3.49495e-14 -3.245e-14 -3.00896e-14 -2.84233e-14 -2.90691e-14 -2.91892e-14 -3.00008e-14 -3.20264e-14 -3.36534e-14 -3.38778e-14 -3.27794e-14 -3.19041e-14 -3.14204e-14 -2.95604e-14 -2.57967e-14 -2.22136e-14 -1.8014e-14 -1.27322e-14 -7.56043e-15 -4.66248e-15 -2.60503e-15 -2.29196e-16 2.70556e-15 4.77795e-15 5.02382e-15 4.58942e-15 3.95288e-15 2.96149e-15 1.51128e-15
-1.72294e-13 -1.72288e-13 -1.72281e-13 -1.72275e-13 -1.72269e-13 -1.72263e-13 -1.69997e-13 -1.68694e-13 -1.67296e-13 -1.65028e-13 -1.63485e-13 -1.64868e-13 -1.66223e-13 -1.67622e-13 -1.69424e-13 -1.70898e-13 -1.70075e-13 -1.6852e-13 -1.67017e-13 -1.65986e-13 -1.64145e-13 -1.60039e-13 -1.55231e-13 -1.50369e-13 -1.45011e-13 -1.39074e-13 -1.33698e-13 -1.2847e-13 -1.23245e-13 -1.18058e-13 -1.12941e-13 -1.08629e-13 -1.04273e-13 -9.99347e-14 -9.57603e-14 -9.17146e-14 -8.78579e-14 -8.35169e-14 -7.9163e-14 -7.46915e-14 -6.99753e-14 -6.73968e-14 -6.49775e-14 -6.24946e-14 -5.94378e-14 -5.65178e-14 -5.52443e-14 -5.47266e-14 -5.41766e-14 -5.3335e-14 -5.33773e-14 -5.15466e-14 -4.93958e-14 -4.7168e-14 -4.42455e-14 -4.11304e-14 -3.79051e-14 -3.53265e-14 -3.27697e-14 -3.04092e-14 -2.8743e-14 -2.93887e-14 -2.95088e-14 -2.9819e-14 -3.18445e-14 -3.34716e-14 -3.3696e-14 -3.25976e-14 -3.15605e-14 -3.10768e-14 -2.92168e-14 -2.54531e-14 -2.18701e-14 -1.81175e-14 -1.28357e-14 -7.66389e-15 -4.76594e-15 -2.70849e-15 -5.63526e-16 2.37123e-15 4.44362e-15 4.68949e-15 4.25509e-15 3.76513e-15 2.77373e-15 1.32353e-15
-1.72096e-13 -1.7209e-13 -1.72084e-13 -1.72078e-13 -1.72071e-13 -1.72065e-13 -1.69799e-13 -1.68497e-13 -1.67194e-13 -1.65085e-13 -1.63541e-13 -1.64924e-13 -1.66279e-13 -1.67634e-13 -1.69363e-13 -1.70837e-13 -1.70014e-13 -1.68459e-13 -1.66903e-13 -1.65787e-13 -1.63945e-13 -1.59839e-13 -1.55032e-13 -1.50224e-13 -1.44956e-13 -1.39019e-13 -1.33643e-13 -1.28415e-13 -1.23187e-13 -1.17992e-13 -1.12876e-13 -1.08564e-13 -1.04207e-13 -9.98511e-14 -9.56469e-14 -9.16012e-14 -8.77445e-14 -8.34035e-14 -7.90626e-14 -7.46124e-14 -6.98963e-14 -6.73178e-14 -6.48985e-14 -6.24791e-14 -5.95266e-14 -5.66065e-14 -5.5333e-14 -5.48153e-14 -5.42976e-14 -5.3509e-14 -5.35513e-14 -5.17206e-14 -4.95697e-14 -4.74189e-14 -4.46226e-14 -4.15074e-14 -3.82821e-14 -3.57035e-14 -3.31249e-14 -3.07288e-14 -2.90626e-14 -2.97084e-14 -2.98285e-14 -2.99486e-14 -3.16627e-14 -3.32898e-14 -3.35142e-14 -3.24158e-14 -3.13174e-14 -3.07333e-14 -2.88733e-14 -2.51096e-14 -2.15265e-14 -1.79434e-14 -1.29391e-14 -7.76735e-15 -4.8694e-15 -2.81195e-15 -7.54508e-16 2.0369e-15 4.10929e-15 4.35516e-15 3.92076e-15 3.48636e-15 2.58598e-15 1.13577e-15
-1.71899e-13 -1.71892e-13 -1.71886e-13 -1.7188e-13 -1.71874e-13 -1.71868e-13 -1.69602e-13 -1.68299e-13 -1.66997e-13 -1.65141e-13 -1.63598e-13 -1.6498e-13 -1.66335e-13 -1.6769e-13 -1.69301e-13 -1.70775e-13 -1.69953e-13 -1.68397e-13 -1.66842e-13 -1.65587e-13 -1.63746e-13 -1.5964e-13 -1.54832e-13 -1.50025e-13 -1.44902e-13 -1.38964e-13 -1.33589e-13 -1.2836e-13 -1.23132e-13 -1.17927e-13 -1.1281e-13 -1.08498e-13 -1.04142e-13 -9.97855e-14 -9.55335e-14 -9.14878e-14 -8.76311e-14 -8.32901e-14 -7.89492e-14 -7.45334e-14 -6.98172e-14 -6.72388e-14 -6.48194e-14 -6.24001e-14 -5.96153e-14 -5.66952e-14 -5.54217e-14 -5.4904e-14 -5.43864e-14 -5.36829e-14 -5.37252e-14 -5.18945e-14 -4.97437e-14 -4.75929e-14 -4.49996e-14 -4.18844e-14 -3.86591e-14 -3.60805e-14 -3.35019e-14 -3.10484e-14 -2.93822e-14 -3.0028e-14 -3.01481e-14 -3.02682e-14 -3.14809e-14 -3.3108e-14 -3.33324e-14 -3.2234e-14 -3.11356e-14 -3.03897e-14 -2.85297e-14 -2.4766e-14 -2.11829e-14 -1.75998e-14 -1.30426e-14 -7.87081e-15 -4.97286e-15 -2.91541e-15 -8.57968e-16 1.70257e-15 3.77496e-15 4.02083e-15 3.58643e-15 3.15203e-15 2.39823e-15 9.4802e-16
-1.71701e-13 -1.71695e-13 -1.71689e-13 -1.71682e-13 -1.71676e-13 -1.7167e-13 -1.69404e-13 -1.68102e-13 -1.66799e-13 -1.65197e-13 -1.63654e-13 -1.65037e-13 -1.66392e-13 -1.67746e-13 -1.6924e-13 -1.70714e-13 -1.69892e-13 -1.68336e-13 -1.66781e-13 -1.65388e-13 -1.63547e-13 -1.59441e-13 -1.54633e-13 -1.49825e-13 -1.44847e-13 -1.38909e-13 -1.33534e-13 -1.28306e-13 -1.23077e-13 -1.17861e-13 -1.12745e-13 -1.08433e-13 -1.04076e-13 -9.972e-14 -9.54201e-14 -9.13744e-14 -8.75177e-14 -8.31767e-14 -7.88358e-14 -7.44544e-14 -6.97382e-14 -6.71597e-14 -6.47404e-14 -6.23211e-14 -5.9704e-14 -5.67839e-14 -5.55104e-14 -5.49927e-14 -5.44751e-14 -5.38569e-14 -5.38992e-14 -5.20685e-14 -4.99177e-14 -4.77668e-14 -4.53766e-14 -4.22614e-14 -3.90361e-14 -3.64575e-14 -3.38789e-14 -3.1368e-14 -2.97018e-14 -3.03476e-14 -3.04677e-14 -3.05878e-14 -3.12991e-14 -3.29262e-14 -3.31505e-14 -3.20522e-14 -3.09538e-14 -3.00461e-14 -2.81861e-14 -2.44224e-14 -2.08393e-14 -1.72562e-14 -1.31461e-14 -7.97427e-15 -5.07632e-15 -3.01887e-15 -9.61428e-16 1.36824e-15 3.44063e-15 3.6865e-15 3.2521e-15 2.8177e-15 2.21048e-15 7.60268e-16
-1.71503e-13 -1.71497e-13 -1.71491e-13 -1.71485e-13 -1.71479e-13 -1.71472e-13 -1.69207e-13 -1.67904e-13 -1.66602e-13 -1.65254e-13 -1.6371e-13 -1.65093e-13 -1.66448e-13 -1.67803e-13 -1.69179e-13 -1.70653e-13 -1.6983e-13 -1.68275e-13 -1.66719e-13 -1.65188e-13 -1.63347e-13 -1.59241e-13 -1.54433e-13 -1.49626e-13 -1.44792e-13 -1.38855e-13 -1.33479e-13 -1.28251e-13 -1.23022e-13 -1.17796e-13 -1.12679e-13 -1.08367e-13 -1.04011e-13 -9.96545e-14 -9.53067e-14 -9.1261e-14 -8.74043e-14 -8.30633e-14 -7.87224e-14 -7.43753e-14 -6.96592e-14 -6.70807e-14 -6.46614e-14 -6.22421e-14 -5.97927e-14 -5.68727e-14 -5.55991e-14 -5.50814e-14 -5.45638e-14 -5.40308e-14 -5.40731e-14 -5.22425e-14 -5.00916e-14 -4.79408e-14 -4.57536e-14 -4.26384e-14 -3.94131e-14 -3.68345e-14 -3.42559e-14 -3.16876e-14 -3.00214e-14 -3.06672e-14 -3.07873e-14 -3.09074e-14 -3.11173e-14 -3.27444e-14 -3.29687e-14 -3.18703e-14 -3.0772e-14 -2.97025e-14 -2.78425e-14 -2.40788e-14 -2.04958e-14 -1.69127e-14 -1.32495e-14 -8.07773e-15 -5.17978e-15 -3.12233e-15 -1.06489e-15 1.03391e-15 3.1063e-15 3.35217e-15 2.91777e-15 2.48338e-15 2.02272e-15 5.72515e-16
-1.71306e-13 -1.713e-13 -1.71293e-13 -1.71287e-13 -1.71281e-13 -1.71275e-13 -1.69009e-13 -1.67706e-13 -1.66404e-13 -1.65101e-13 -1.63767e-13 -1.65149e-13 -1.66504e-13 -1.67859e-13 -1.69214e-13 -1.70591e-13 -1.69769e-13 -1.68213e-13 -1.66658e-13 -1.65102e-13 -1.63148e-13 -1.59042e-13 -1.54234e-13 -1.49426e-13 -1.44619e-13 -1.388e-13 -1.33425e-13 -1.28196e-13 -1.22968e-13 -1.17739e-13 -1.12613e-13 -1.08302e-13 -1.03945e-13 -9.9589e-14 -9.52326e-14 -9.11476e-14 -8.72909e-14 -8.295e-14 -7.8609e-14 -7.42681e-14 -6.95801e-14 -6.70017e-14 -6.45823e-14 -6.2163e-14 -5.97437e-14 -5.69614e-14 -5.56878e-14 -5.51701e-14 -5.46525e-14 -5.41348e-14 -5.42471e-14 -5.24164e-14 -5.02656e-14 -4.81147e-14 -4.59639e-14 -4.30154e-14 -3.97901e-14 -3.72115e-14 -3.46329e-14 -3.20544e-14 -3.0341e-14 -3.09868e-14 -3.11069e-14 -3.1227e-14 -3.13471e-14 -3.25626e-14 -3.27869e-14 -3.16885e-14 -3.05901e-14 -2.94918e-14 -2.7499e-14 -2.37353e-14 -2.01522e-14 -1.65691e-14 -1.2986e-14 -8.18119e-15 -5.28324e-15 -3.22579e-15 -1.16835e-15 8.89099e-16 2.77197e-15 3.01784e-15 2.58344e-15 2.14905e-15 1.71465e-15 3.84763e-16
-1.71108e-13 -1.71102e-13 -1.71096e-13 -1.7109e-13 -1.71084e-13 -1.71077e-13 -1.68811e-13 -1.67509e-13 -1.66206e-13 -1.64904e-13 -1.63823e-13 -1.65206e-13 -1.6656e-13 -1.67915e-13 -1.6927e-13 -1.7053e-13 -1.69708e-13 -1.68152e-13 -1.66597e-13 -1.65041e-13 -1.62948e-13 -1.58842e-13 -1.54035e-13 -1.49227e-13 -1.44419e-13 -1.38745e-13 -1.3337e-13 -1.28141e-13 -1.22913e-13 -1.17684e-13 -1.12548e-13 -1.08236e-13 -1.0388e-13 -9.95235e-14 -9.51671e-14 -9.10342e-14 -8.71775e-14 -8.28366e-14 -7.84956e-14 -7.41547e-14 -6.95011e-14 -6.69226e-14 -6.45033e-14 -6.2084e-14 -5.96647e-14 -5.70501e-14 -5.57765e-14 -5.52588e-14 -5.47412e-14 -5.42235e-14 -5.4421e-14 -5.25904e-14 -5.04395e-14 -4.82887e-14 -4.61378e-14 -4.33924e-14 -4.01671e-14 -3.75885e-14 -3.50099e-14 -3.24314e-14 -3.06606e-14 -3.13064e-14 -3.14265e-14 -3.15466e-14 -3.16667e-14 -3.23808e-14 -3.26051e-14 -3.15067e-14 -3.04083e-14 -2.93099e-14 -2.71554e-14 -2.33917e-14 -1.98086e-14 -1.62255e-14 -1.26424e-14 -8.28465e-15 -5.3867e-15 -3.32925e-15 -1.27181e-15 7.85639e-16 2.43764e-15 2.68351e-15 2.24911e-15 1.81472e-15 1.38032e-15 1.97011e-16