# vtk DataFile Version 2.0
track0
ASCII
DATASET POLYDATA
POINTS 1720 double
-1.001 -0.05 0.0011
-1.0008 -0.05 0.0011
-1.0006 -0.05 0.0011
-1.0004 -0.05 0.0011
-1.0002 -0.05 0.0011
-1 -0.05 0.0011
-0.8 -0.05 0.0011
-0.6 -0.05 0.0011
-0.4 -0.05 0.0011
-0.2 -0.05 0.0011
0 -0.05 0.0011
0.2 -0.05 0.0011
0.4 -0.05 0.0011
0.6 -0.05 0.0011
0.8 -0.05 0.0011
1 -0.05 0.0011
1.2 -0.05 0.0011
1.4 -0.05 0.0011
1.6 -0.05 0.0011
1.8 -0.05 0.0011
2 -0.05 0.0011
2.2 -0.05 0.0011
2.4 -0.05 0.0011
2.6 -0.05 0.0011
2.8 -0.05 0.0011
3 -0.05 0.0011
3.2 -0.05 0.0011
3.4 -0.05 0.0011
3.6 -0.05 0.0011
3.8 -0.05 0.0011
4 -0.05 0.0011
4.2 -0.05 0.0011
4.4 -0.05 0.0011
4.6 -0.05 0.0011
4.8 -0.05 0.0011
5 -0.05 0.0011
5.2 -0.05 0.0011
5.4 -0.05 0.0011
5.6 -0.05 0.0011
5.8 -0.05 0.0011
6 -0.05 0.0011
6.2 -0.05 0.0011
6.4 -0.05 0.0011
6.6 -0.05 0.0011
6.8 -0.05 0.0011
7 -0.05 0.0011
7.2 -0.05 0.0011
7.4 -0.05 0.0011
7.6 -0.05 0.0011
7.8 -0.05 0.0011
8 -0.05 0.0011
8.2 -0.05 0.0011
8.4 -0.05 0.0011
8.6 -0.05 0.0011
8.8 -0.05 0.0011
9 -0.05 0.0011
9.2 -0.05 0.0011
9.4 -0.05 0.0011
9.6 -0.05 0.0011
9.8 -0.05 0.0011
10 -0.05 0.0011
10.2 -0.05 0.0011
10.4 -0.05 0.0011
10.6 -0.05 0.0011
10.8 -0.05 0.0011
11 -0.05 0.0011
11.2 -0.05 0.0011
11.4 -0.05 0.0011
11.6 -0.05 0.0011
11.8 -0.05 0.0011
12 -0.05 0.0011
12.2 -0.05 0.0011
12.4 -0.05 0.0011
12.6 -0.05 0.0011
12.8 -0.05 0.0011
13 -0.05 0.0011
13.2 -0.05 0.0011
13.4 -0.05 0.0011
13.6 -0.05 0.0011
13.8 -0.05 0.0011
14 -0.05 0.0011
14.2 -0.05 0.0011
14.4 -0.05 0.0011
14.6 -0.05 0.0011
14.8 -0.05 0.0011
15 -0.05 0.0011
-1.001 -0.05 0.0537316
-1.0008 -0.05 0.0537316
-1.0006 -0.05 0.0537316
-1.0004 -0.05 0.0537316
-1.0002 -0.05 0.0537316
-1 -0.05 0.0537316
-0.8 -0.05 0.0537316
-0.6 -0.05 0.0537316
-0.4 -0.05 0.0537316
-0.2 -0.05 0.0537316
0 -0.05 0.0537316
0.2 -0.05 0.0537316
0.4 -0.05 0.0537316
0.6 -0.05 0.0537316
0.8 -0.05 0.0537316
1 -0.05 0.0537316
1.2 -0.05 0.0537316
1.4 -0.05 0.0537316
1.6 -0.05 0.0537316
1.8 -0.05 0.0537316
2 -0.05 0.0537316
2.2 -0.05 0.0537316
2.4 -0.05 0.0537316
2.6 -0.05 0.0537316
2.8 -0.05 0.0537316
3 -0.05 0.0537316
3.2 -0.05 0.0537316
3.4 -0.05 0.0537316
3.6 -0.05 0.0537316
3.8 -0.05 0.0537316
4 -0.05 0.0537316
4.2 -0.05 0.0537316
4.4 -0.05 0.0537316
4.6 -0.05 0.0537316
4.8 -0.05 0.0537316
5 -0.05 0.0537316
5.2 -0.05 0.0537316
5.4 -0.05 0.0537316
5.6 -0.05 0.0537316
5.8 -0.05 0.0537316
6 -0.05 0.0537316
6.2 -0.05 0.0537316
6.4 -0.05 0.0537316
6.6 -0.05 0.0537316
6.8 -0.05 0.0537316
7 -0.05 0.0537316
7.2 -0.05 0.0537316
7.4 -0.05 0.0537316
7.6 -0.05 0.0537316
7.8 -0.05 0.0537316
8 -0.05 0.0537316
8.2 -0.05 0.0537316
8.4 -0.05 0.0537316
8.6 -0.05 0.0537316
8.8 -0.05 0.0537316
9 -0.05 0.0537316
9.2 -0.05 0.0537316
9.4 -0.05 0.0537316
9.6 -0.05 0.0537316
9.8 -0.05 0.0537316
10 -0.05 0.0537316
10.2 -0.05 0.0537316
10.4 -0.05 0.0537316
10.6 -0.05 0.0537316
10.8 -0.05 0.0537316
11 -0.05 0.0537316
11.2 -0.05 0.0537316
11.4 -0.05 0.0537316
11.6 -0.05 0.0537316
11.8 -0.05 0.0537316
12 -0.05 0.0537316
12.2 -0.05 0.0537316
12.4 -0.05 0.0537316
12.6 -0.05 0.0537316
12.8 -0.05 0.0537316
13 -0.05 0.0537316
13.2 -0.05 0.0537316
13.4 -0.05 0.0537316
13.6 -0.05 0.0537316
13.8 -0.05 0.0537316
14 -0.05 0.0537316
14.2 -0.05 0.0537316
14.4 -0.05 0.0537316
14.6 -0.05 0.0537316
14.8 -0.05 0.0537316
15 -0.05 0.0537316
-1.001 -0.05 0.106363
-1.0008 -0.05 0.106363
-1.0006 -0.05 0.106363
-1.0004 -0.05 0.106363
-1.0002 -0.05 0.106363
-1 -0.05 0.106363
-0.8 -0.05 0.106363
-0.6 -0.05 0.106363
-0.4 -0.05 0.106363
-0.2 -0.05 0.106363
0 -0.05 0.106363
0.2 -0.05 0.106363
0.4 -0.05 0.106363
0.6 -0.05 0.106363
0.8 -0.05 0.106363
1 -0.05 0.106363
1.2 -0.05 0.106363
1.4 -0.05 0.106363
1.6 -0.05 0.106363
1.8 -0.05 0.106363
2 -0.05 0.106363
2.2 -0.05 0.106363
2.4 -0.05 0.106363
2.6 -0.05 0.106363
2.8 -0.05 0.106363
3 -0.05 0.106363
3.2 -0.05 0.106363
3.4 -0.05 0.106363
3.6 -0.05 0.106363
3.8 -0.05 0.106363
4 -0.05 0.106363
4.2 -0.05 0.106363
4.4 -0.05 0.106363
4.6 -0.05 0.106363
4.8 -0.05 0.106363
5 -0.05 0.106363
5.2 -0.05 0.106363
5.4 -0.05 0.106363
5.6 -0.05 0.106363
5.8 -0.05 0.106363
6 -0.05 0.106363
6.2 -0.05 0.106363
6.4 -0.05 0.106363
6.6 -0.05 0.106363
6.8 -0.05 0.106363
7 -0.05 0.106363
7.2 -0.05 0.106363
7.4 -0.05 0.106363
7.6 -0.05 0.106363
7.8 -0.05 0.106363
8 -0.05 0.106363
8.2 -0.05 0.106363
8.4 -0.05 0.106363
8.6 -0.05 0.106363
8.8 -0.05 0.106363
9 -0.05 0.106363
9.2 -0.05 0.106363
9.4 -0.05 0.106363
9.6 -0.05 0.106363
9.8 -0.05 0.106363
10 -0.05 0.106363
10.2 -0.05 0.106363
10.4 -0.05 0.106363
10.6 -0.05 0.106363
10.8 -0.05 0.106363
11 -0.05 0.106363
11.2 -0.05 0.106363
11.4 -0.05 0.106363
11.6 -0.05 0.106363
11.8 -0.05 0.106363
12 -0.05 0.106363
12.2 -0.05 0.106363
12.4 -0.05 0.106363
12.6 -0.05 0.106363
12.8 -0.05 0.106363
13 -0.05 0.106363
13.2 -0.05 0.106363
13.4 -0.05 0.106363
13.6 -0.05 0.106363
13.8 -0.05 0.106363
14 -0.05 0.106363
14.2 -0.05 0.106363
14.4 -0.05 0.106363
14.6 -0.05 0.106363
14.8 -0.05 0.106363
15 -0.05 0.106363
-1.001 -0.05 0.158995
-1.0008 -0.05 0.158995
-1.0006 -0.05 0.158995
-1.0004 -0.05 0.158995
-1.0002 -0.05 0.158995
-1 -0.05 0.158995
-0.8 -0.05 0.158995
-0.6 -0.05 0.158995
-0.4 -0.05 0.158995
-0.2 -0.05 0.158995
0 -0.05 0.158995
0.2 -0.05 0.158995
0.4 -0.05 0.158995
0.6 -0.05 0.158995
0.8 -0.05 0.158995
1 -0.05 0.158995
1.2 -0.05 0.158995
1.4 -0.05 0.158995
1.6 -0.05 0.158995
1.8 -0.05 0.158995
2 -0.05 0.158995
2.2 -0.05 0.158995
2.4 -0.05 0.158995
2.6 -0.05 0.158995
2.8 -0.05 0.158995
3 -0.05 0.158995
3.2 -0.05 0.158995
3.4 -0.05 0.158995
3.6 -0.05 0.158995
3.8 -0.05 0.158995
4 -0.05 0.158995
4.2 -0.05 0.158995
4.4 -0.05 0.158995
4.6 -0.05 0.158995
4.8 -0.05 0.158995
5 -0.05 0.158995
5.2 -0.05 0.158995
5.4 -0.05 0.158995
5.6 -0.05 0.158995
5.8 -0.05 0.158995
6 -0.05 0.158995
6.2 -0.05 0.158995
6.4 -0.05 0.158995
6.6 -0.05 0.158995
6.8 -0.05 0.158995
7 -0.05 0.158995
7.2 -0.05 0.158995
7.4 -0.05 0.158995
7.6 -0.05 0.158995
7.8 -0.05 0.158995
8 -0.05 0.158995
8.2 -0.05 0.158995
8.4 -0.05 0.158995
8.6 -0.05 0.158995
8.8 -0.05 0.158995
9 -0.05 0.158995
9.2 -0.05 0.158995
9.4 -0.05 0.158995
9.6 -0.05 0.158995
9.8 -0.05 0.158995
10 -0.05 0.158995
10.2 -0.05 0.158995
10.4 -0.05 0.158995
10.6 -0.05 0.158995
10.8 -0.05 0.158995
11 -0.05 0.158995
11.2 -0.05 0.158995
11.4 -0.05 0.158995
11.6 -0.05 0.158995
11.8 -0.05 0.158995
12 -0.05 0.158995
12.2 -0.05 0.158995
12.4 -0.05 0.158995
12.6 -0.05 0.158995
12.8 -0.05 0.158995
13 -0.05 0.158995
13.2 -0.05 0.158995
13.4 -0.05 0.158995
13.6 -0.05 0.158995
13.8 -0.05 0.158995
14 -0.05 0.158995
14.2 -0.05 0.158995
14.4 -0.05 0.158995
14.6 -0.05 0.158995
14.8 -0.05 0.158995
15 -0.05 0.158995
-1.001 -0.05 0.211626
-1.0008 -0.05 0.211626
-1.0006 -0.05 0.211626
-1.0004 -0.05 0.211626
-1.0002 -0.05 0.211626
-1 -0.05 0.211626
-0.8 -0.05 0.211626
-0.6 -0.05 0.211626
-0.4 -0.05 0.211626
-0.2 -0.05 0.211626
0 -0.05 0.211626
0.2 -0.05 0.211626
0.4 -0.05 0.211626
0.6 -0.05 0.211626
0.8 -0.05 0.211626
1 -0.05 0.211626
1.2 -0.05 0.211626
1.4 -0.05 0.211626
1.6 -0.05 0.211626
1.8 -0.05 0.211626
2 -0.05 0.211626
2.2 -0.05 0.211626
2.4 -0.05 0.211626
2.6 -0.05 0.211626
2.8 -0.05 0.211626
3 -0.05 0.211626
3.2 -0.05 0.211626
3.4 -0.05 0.211626
3.6 -0.05 0.211626
3.8 -0.05 0.211626
4 -0.05 0.211626
4.2 -0.05 0.211626
4.4 -0.05 0.211626
4.6 -0.05 0.211626
4.8 -0.05 0.211626
5 -0.05 0.211626
5.2 -0.05 0.211626
5.4 -0.05 0.211626
5.6 -0.05 0.211626
5.8 -0.05 0.211626
6 -0.05 0.211626
6.2 -0.05 0.211626
6.4 -0.05 0.211626
6.6 -0.05 0.211626
6.8 -0.05 0.211626
7 -0.05 0.211626
7.2 -0.05 0.211626
7.4 -0.05 0.211626
7.6 -0.05 0.211626
7.8 -0.05 0.211626
8 -0.05 0.211626
8.2 -0.05 0.211626
8.4 -0.05 0.211626
8.6 -0.05 0.211626
8.8 -0.05 0.211626
9 -0.05 0.211626
9.2 -0.05 0.211626
9.4 -0.05 0.211626
9.6 -0.05 0.211626
9.8 -0.05 0.211626
10 -0.05 0.211626
10.2 -0.05 0.211626
10.4 -0.05 0.211626
10.6 -0.05 0.211626
10.8 -0.05 0.211626
11 -0.05 0.211626
11.2 -0.05 0.211626
11.4 -0.05 0.211626
11.6 -0.05 0.211626
11.8 -0.05 0.211626
12 -0.05 0.211626
12.2 -0.05 0.211626
12.4 -0.05 0.211626
12.6 -0.05 0.211626
12.8 -0.05 0.211626
13 -0.05 0.211626
13.2 -0.05 0.211626
13.4 -0.05 0.211626
13.6 -0.05 0.211626
13.8 -0.05 0.211626
14 -0.05 0.211626
14.2 -0.05 0.211626
14.4 -0.05 0.211626
14.6 -0.05 0.211626
14.8 -0.05 0.211626
15 -0.05 0.211626
-1.001 -0.05 0.264258
-1.0008 -0.05 0.264258
-1.0006 -0.05 0.264258
-1.0004 -0.05 0.264258
-1.0002 -0.05 0.264258
-1 -0.05 0.264258
-0.8 -0.05 0.264258
-0.6 -0.05 0.264258
-0.4 -0.05 0.264258
-0.2 -0.05 0.264258
0 -0.05 0.264258
0.2 -0.05 0.264258
0.4 -0.05 0.264258
0.6 -0.05 0.264258
0.8 -0.05 0.264258
1 -0.05 0.264258
1.2 -0.05 0.264258
1.4 -0.05 0.264258
1.6 -0.05 0.264258
1.8 -0.05 0.264258
2 -0.05 0.264258
2.2 -0.05 0.264258
2.4 -0.05 0.264258
2.6 -0.05 0.264258
2.8 -0.05 0.264258
3 -0.05 0.264258
3.2 -0.05 0.264258
3.4 -0.05 0.264258
3.6 -0.05 0.264258
3.8 -0.05 0.264258
4 -0.05 0.264258
4.2 -0.05 0.264258
4.4 -0.05 0.264258
4.6 -0.05 0.264258
4.8 -0.05 0.264258
5 -0.05 0.264258
5.2 -0.05 0.264258
5.4 -0.05 0.264258
5.6 -0.05 0.264258
5.8 -0.05 0.264258
6 -0.05 0.264258
6.2 -0.05 0.264258
6.4 -0.05 0.264258
6.6 -0.05 0.264258
6.8 -0.05 0.264258
7 -0.05 0.264258
7.2 -0.05 0.264258
7.4 -0.05 0.264258
7.6 -0.05 0.264258
7.8 -0.05 0.264258
8 -0.05 0.264258
8.2 -0.05 0.264258
8.4 -0.05 0.264258
8.6 -0.05 0.264258
8.8 -0.05 0.264258
9 -0.05 0.264258
9.2 -0.05 0.264258
9.4 -0.05 0.264258
9.6 -0.05 0.264258
9.8 -0.05 0.264258
10 -0.05 0.264258
10.2 -0.05 0.264258
10.4 -0.05 0.264258
10.6 -0.05 0.264258
10.8 -0.05 0.264258
11 -0.05 0.264258
11.2 -0.05 0.264258
11.4 -0.05 0.264258
11.6 -0.05 0.264258
11.8 -0.05 0.264258
12 -0.05 0.264258
12.2 -0.05 0.264258
12.4 -0.05 0.264258
12.6 -0.05 0.264258
12.8 -0.05 0.264258
13 -0.05 0.264258
13.2 -0.05 0.264258
13.4 -0.05 0.264258
13.6 -0.05 0.264258
13.8 -0.05 0.264258
14 -0.05 0.264258
14.2 -0.05 0.264258
14.4 -0.05 0.264258
14.6 -0.05 0.264258
14.8 -0.05 0.264258
15 -0.05 0.264258
-1.001 -0.05 0.316889
-1.0008 -0.05 0.316889
-1.0006 -0.05 0.316889
-1.0004 -0.05 0.316889
[...]
POINT_DATA 1720
 FIELD attributes 1
U 3 1720 float
20 	-2.73926e-18 	-4.42138e-19 20 	-2.38688e-18 	-3.71307e-19 20 	-2.0345e-18 	-3.00475e-19 20 	-1.68212e-18 	-2.29644e-19 20 	-1.32974e-18 	-1.58813e-19 20 	-9.77355e-19 	-8.7982e-20 20 	-1.64026e-18 	7.83102e-19 20 	-1.64026e-18 	7.83102e-19 20 	-1.64026e-18 	7.83102e-19 20 	-1.64026e-18 	7.83102e-19 20 	-6.04038e-19 	3.16386e-19 20 	-1.31097e-18 	7.94187e-19 20 	-1.31097e-18 	7.94187e-19 20 	-1.31097e-18 	7.94187e-19 20 	-1.31097e-18 	7.94187e-19 20 	-7.86818e-20 	-1.98271e-20 20 	1.22706e-18 	1.34881e-20 20 	1.22706e-18 	1.34881e-20 20 	1.22706e-18 	1.34881e-20 20 	1.22706e-18 	1.34881e-20 20 	2.62297e-19 	-2.62217e-19 20 	1.30201e-18 	9.17759e-19 20 	1.30201e-18 	9.17759e-19 20 	1.30201e-18 	9.17759e-19 20 	1.30201e-18 	9.17759e-19 20 	5.00091e-19 	-3.45556e-19 20 	1.03781e-18 	-1.73213e-19 20 	1.03781e-18 	-1.73213e-19 20 	1.03781e-18 	-1.73213e-19 20 	1.03781e-18 	-1.73213e-19 20 	5.43552e-19 	-5.70999e-19 20 	7.97168e-19 	-5.19429e-19 20 	7.97168e-19 	-5.19429e-19 20 	7.97168e-19 	-5.19429e-19 20 	7.97168e-19 	-5.19429e-19 20 	-9.05272e-20 	-7.97131e-19 20 	-2.00772e-19 	-1.34389e-18 20 	-2.00772e-19 	-1.34389e-18 20 	-2.00772e-19 	-1.34389e-18 20 	-2.00772e-19 	-1.34389e-18 20 	-4.95312e-19 	-7.93647e-19 20 	-6.69925e-19 	-3.00892e-19 20 	-6.69925e-19 	-3.00892e-19 20 	-6.69925e-19 	-3.00892e-19 20 	-6.69925e-19 	-3.00892e-19 20 	-3.44713e-19 	-4.00166e-19 20 	-1.23803e-19 	-6.97499e-20 20 	-1.23803e-19 	-6.97499e-20 20 	-1.23803e-19 	-6.97499e-20 20 	-1.23803e-19 	-6.97499e-20 20 	-1.93697e-19 	-2.15511e-19 20 	-3.98213e-19 	-5.70763e-19 20 	-3.98213e-19 	-5.70763e-19 20 	-3.98213e-19 	-5.70763e-19 20 	-3.98213e-19 	-5.70763e-19 20 	-5.30733e-19 	2.32816e-19 20 	-1.04673e-18 	5.8341e-19 20 	-1.04673e-18 	5.8341e-19 20 	-1.04673e-18 	5.8341e-19 20 	-1.04673e-18 	5.8341e-19 20 	-1.2711e-18 	3.97448e-19 20 	-2.38759e-18 	-4.90735e-19 20 	-2.38759e-18 	-4.90735e-19 20 	-2.38759e-18 	-4.90735e-19 20 	-2.38759e-18 	-4.90735e-19 20 	-1.24812e-18 	-3.40584e-19 20 	-5.40571e-19 	-1.67874e-18 20 	-5.40571e-19 	-1.67874e-18 20 	-5.40571e-19 	-1.67874e-18 20 	-5.40571e-19 	-1.67874e-18 20 	-1.22356e-18 	-5.82366e-19 20 	-2.27582e-18 	-8.41777e-19 20 	-2.27582e-18 	-8.41777e-19 20 	-2.27582e-18 	-8.41777e-19 20 	-2.27582e-18 	-8.41777e-19 20 	-1.85636e-18 	-1.15912e-19 20 	-3.24276e-18 	-4.91398e-19 20 	-3.24276e-18 	-4.91398e-19 20 	-3.24276e-18 	-4.91398e-19 20 	-3.24276e-18 	-4.91398e-19 20 	-2.52786e-18 	3.49771e-19 20 	-2.87251e-16 	3.60002e-17 20 	-5.69905e-16 	7.1616e-17 20 	-8.52559e-16 	1.07232e-16 20 	-1.13521e-15 	1.42848e-16 20 	-1.39735e-15 	1.76023e-16
20 	-4.95026e-17 	-4.6518e-18 20 	-4.91503e-17 	-4.58097e-18 20 	-4.87979e-17 	-4.51014e-18 20 	-4.84455e-17 	-4.43931e-18 20 	-4.80931e-17 	-4.36848e-18 20 	-4.77407e-17 	-4.29765e-18 20 	-7.66063e-17 	3.66689e-17 20 	-7.66063e-17 	3.66689e-17 20 	-7.66063e-17 	3.66689e-17 20 	-7.66063e-17 	3.66689e-17 20 	-2.95054e-17 	1.54545e-17 20 	-5.98565e-17 	3.60322e-17 20 	-5.98565e-17 	3.60322e-17 20 	-5.98565e-17 	3.60322e-17 20 	-5.98565e-17 	3.60322e-17 20 	-3.84336e-18 	-9.68493e-19 20 	5.66653e-17 	-2.76433e-19 20 	5.66653e-17 	-2.76433e-19 20 	5.66653e-17 	-2.76433e-19 20 	5.66653e-17 	-2.76433e-19 20 	1.28124e-17 	-1.28085e-17 20 	6.08788e-17 	4.05441e-17 20 	6.08788e-17 	4.05441e-17 20 	6.08788e-17 	4.05441e-17 20 	6.08788e-17 	4.05441e-17 20 	2.44279e-17 	-1.68793e-17 20 	4.9017e-17 	-9.81035e-18 20 	4.9017e-17 	-9.81035e-18 20 	4.9017e-17 	-9.81035e-18 20 	4.9017e-17 	-9.81035e-18 20 	2.65508e-17 	-2.78915e-17 20 	3.59278e-17 	-2.63145e-17 20 	3.59278e-17 	-2.63145e-17 20 	3.59278e-17 	-2.63145e-17 20 	3.59278e-17 	-2.63145e-17 20 	-4.42197e-18 	-3.89374e-17 20 	-1.08063e-17 	-6.37784e-17 20 	-1.08063e-17 	-6.37784e-17 20 	-1.08063e-17 	-6.37784e-17 20 	-1.08063e-17 	-6.37784e-17 20 	-2.41945e-17 	-3.87672e-17 20 	-3.16205e-17 	-1.50344e-17 20 	-3.16205e-17 	-1.50344e-17 20 	-3.16205e-17 	-1.50344e-17 20 	-3.16205e-17 	-1.50344e-17 20 	-1.68381e-17 	-1.95469e-17 20 	-6.28449e-18 	-3.90154e-18 20 	-6.28449e-18 	-3.90154e-18 20 	-6.28449e-18 	-3.90154e-18 20 	-6.28449e-18 	-3.90154e-18 20 	-9.46149e-18 	-1.0527e-17 20 	-1.9901e-17 	-2.5154e-17 20 	-1.9901e-17 	-2.5154e-17 20 	-1.9901e-17 	-2.5154e-17 20 	-1.9901e-17 	-2.5154e-17 20 	-2.59247e-17 	1.13724e-17 20 	-5.18908e-17 	2.78669e-17 20 	-5.18908e-17 	2.78669e-17 20 	-5.18908e-17 	2.78669e-17 20 	-5.18908e-17 	2.78669e-17 20 	-6.20892e-17 	1.94141e-17 20 	-1.12761e-16 	-2.34615e-17 20 	-1.12761e-16 	-2.34615e-17 20 	-1.12761e-16 	-2.34615e-17 20 	-1.12761e-16 	-2.34615e-17 20 	-6.09668e-17 	-1.66365e-17 20 	-2.87222e-17 	-7.82822e-17 20 	-2.87222e-17 	-7.82822e-17 20 	-2.87222e-17 	-7.82822e-17 20 	-2.87222e-17 	-7.82822e-17 20 	-5.97671e-17 	-2.84468e-17 20 	-1.09744e-16 	-3.86558e-17 20 	-1.09744e-16 	-3.86558e-17 20 	-1.09744e-16 	-3.86558e-17 20 	-1.09744e-16 	-3.86558e-17 20 	-9.06773e-17 	-5.66192e-18 20 	-1.55974e-16 	-2.11497e-17 20 	-1.55974e-16 	-2.11497e-17 20 	-1.55974e-16 	-2.11497e-17 20 	-1.55974e-16 	-2.11497e-17 20 	-1.23478e-16 	1.70852e-17 20 	-4.96185e-16 	5.44531e-17 20 	-7.78839e-16 	9.0069e-17 20 	-1.06149e-15 	1.25685e-16 20 	-1.34415e-15 	1.61301e-16 20 	-1.46162e-15 	1.95308e-16
20 	-9.6266e-17 	-8.86147e-18 20 	-9.59137e-17 	-8.79064e-18 20 	-9.55613e-17 	-8.71981e-18 20 	-9.52089e-17 	-8.64898e-18 20 	-9.48565e-17 	-8.57815e-18 20 	-9.45041e-17 	-8.50731e-18 20 	-1.05508e-16 	5.18069e-17 20 	-1.05508e-16 	5.18069e-17 20 	-1.05508e-16 	5.18069e-17 20 	-1.05508e-16 	5.18069e-17 20 	-5.84067e-17 	3.05926e-17 20 	-6.36212e-17 	3.50835e-17 20 	-6.36212e-17 	3.50835e-17 20 	-6.36212e-17 	3.50835e-17 20 	-6.36212e-17 	3.50835e-17 20 	-7.60804e-18 	-1.91716e-18 20 	6.92154e-17 	-1.28227e-17 20 	6.92154e-17 	-1.28227e-17 20 	6.92154e-17 	-1.28227e-17 20 	6.92154e-17 	-1.28227e-17 20 	2.53625e-17 	-2.53547e-17 20 	8.48066e-17 	2.40103e-17 20 	8.48066e-17 	2.40103e-17 20 	8.48066e-17 	2.40103e-17 20 	8.48066e-17 	2.40103e-17 20 	4.83557e-17 	-3.34131e-17 20 	7.50243e-17 	-3.71309e-17 20 	7.50243e-17 	-3.71309e-17 20 	7.50243e-17 	-3.71309e-17 20 	7.50243e-17 	-3.71309e-17 20 	5.25581e-17 	-5.5212e-17 20 	3.15964e-17 	-6.44548e-17 20 	3.15964e-17 	-6.44548e-17 20 	3.15964e-17 	-6.44548e-17 20 	3.15964e-17 	-6.44548e-17 20 	-8.75341e-18 	-7.70776e-17 20 	-3.45054e-17 	-1.01752e-16 20 	-3.45054e-17 	-1.01752e-16 20 	-3.45054e-17 	-1.01752e-16 20 	-3.45054e-17 	-1.01752e-16 20 	-4.78936e-17 	-7.67407e-17 20 	-4.81139e-17 	-3.41811e-17 20 	-4.81139e-17 	-3.41811e-17 20 	-4.81139e-17 	-3.41811e-17 20 	-4.81139e-17 	-3.41811e-17 20 	-3.33316e-17 	-3.86936e-17 20 	-1.55523e-17 	-1.42131e-17 20 	-1.55523e-17 	-1.42131e-17 20 	-1.55523e-17 	-1.42131e-17 20 	-1.55523e-17 	-1.42131e-17 20 	-1.87293e-17 	-2.08385e-17 20 	-4.5295e-17 	-1.40144e-17 20 	-4.5295e-17 	-1.40144e-17 20 	-4.5295e-17 	-1.40144e-17 20 	-4.5295e-17 	-1.40144e-17 20 	-5.13186e-17 	2.25119e-17 20 	-1.12709e-16 	4.68836e-17 20 	-1.12709e-16 	4.68836e-17 20 	-1.12709e-16 	4.68836e-17 20 	-1.12709e-16 	4.68836e-17 20 	-1.22907e-16 	3.84308e-17 20 	-1.7248e-16 	-3.97574e-17 20 	-1.7248e-16 	-3.97574e-17 20 	-1.7248e-16 	-3.97574e-17 20 	-1.7248e-16 	-3.97574e-17 20 	-1.20685e-16 	-3.29324e-17 20 	-8.72657e-17 	-1.06147e-16 20 	-8.72657e-17 	-1.06147e-16 20 	-8.72657e-17 	-1.06147e-16 20 	-8.72657e-17 	-1.06147e-16 20 	-1.18311e-16 	-5.63112e-17 20 	-1.98565e-16 	-4.42018e-17 20 	-1.98565e-16 	-4.42018e-17 20 	-1.98565e-16 	-4.42018e-17 20 	-1.98565e-16 	-4.42018e-17 20 	-1.79498e-16 	-1.12079e-17 20 	-2.76924e-16 	-4.41426e-18 20 	-2.76924e-16 	-4.41426e-18 20 	-2.76924e-16 	-4.41426e-18 20 	-2.76924e-16 	-4.41426e-18 20 	-2.44429e-16 	3.38207e-17 20 	-5.60458e-16 	7.37375e-17 20 	-8.43112e-16 	1.09353e-16 20 	-1.12577e-15 	1.44969e-16 20 	-1.40842e-15 	1.80585e-16 20 	-1.5259e-15 	2.14592e-16
20 	-1.43029e-16 	-1.30711e-17 20 	-1.42677e-16 	-1.30003e-17 20 	-1.42325e-16 	-1.29295e-17 20 	-1.41972e-16 	-1.28586e-17 20 	-1.4162e-16 	-1.27878e-17 20 	-1.41268e-16 	-1.2717e-17 20 	-1.34409e-16 	6.6945e-17 20 	-1.34409e-16 	6.6945e-17 20 	-1.34409e-16 	6.6945e-17 20 	-1.34409e-16 	6.6945e-17 20 	-8.73081e-17 	4.57306e-17 20 	-6.73859e-17 	3.41348e-17 20 	-6.73859e-17 	3.41348e-17 20 	-6.73859e-17 	3.41348e-17 20 	-6.73859e-17 	3.41348e-17 20 	-1.13727e-17 	-2.86583e-18 20 	8.17655e-17 	-2.5369e-17 20 	8.17655e-17 	-2.5369e-17 20 	8.17655e-17 	-2.5369e-17 20 	8.17655e-17 	-2.5369e-17 20 	3.79126e-17 	-3.7901e-17 20 	1.08734e-16 	7.47652e-18 20 	1.08734e-16 	7.47652e-18 20 	1.08734e-16 	7.47652e-18 20 	1.08734e-16 	7.47652e-18 20 	7.22835e-17 	-4.99469e-17 20 	1.01032e-16 	-6.44514e-17 20 	1.01032e-16 	-6.44514e-17 20 	1.01032e-16 	-6.44514e-17 20 	1.01032e-16 	-6.44514e-17 20 	7.85653e-17 	-8.25326e-17 20 	2.72649e-17 	-1.02595e-16 20 	2.72649e-17 	-1.02595e-16 20 	2.72649e-17 	-1.02595e-16 20 	2.72649e-17 	-1.02595e-16 20 	-1.30849e-17 	-1.15218e-16 20 	-5.82046e-17 	-1.39725e-16 20 	-5.82046e-17 	-1.39725e-16 20 	-5.82046e-17 	-1.39725e-16 20 	-5.82046e-17 	-1.39725e-16 20 	-7.15928e-17 	-1.14714e-16 20 	-6.46074e-17 	-5.33279e-17 20 	-6.46074e-17 	-5.33279e-17 20 	-6.46074e-17 	-5.33279e-17 20 	-6.46074e-17 	-5.33279e-17 20 	-4.9825e-17 	-5.78403e-17 20 	-2.48201e-17 	-2.45246e-17 20 	-2.48201e-17 	-2.45246e-17 20 	-2.48201e-17 	-2.45246e-17 20 	-2.48201e-17 	-2.45246e-17 20 	-2.79971e-17 	-3.11501e-17 20 	-7.06889e-17 	-2.87487e-18 20 	-7.06889e-17 	-2.87487e-18 20 	-7.06889e-17 	-2.87487e-18 20 	-7.06889e-17 	-2.87487e-18 20 	-7.67125e-17 	3.36515e-17 20 	-1.73527e-16 	6.59003e-17 20 	-1.73527e-16 	6.59003e-17 20 	-1.73527e-16 	6.59003e-17 20 	-1.73527e-16 	6.59003e-17 20 	-1.83725e-16 	5.74474e-17 20 	-2.32198e-16 	-5.60533e-17 20 	-2.32198e-16 	-5.60533e-17 20 	-2.32198e-16 	-5.60533e-17 20 	-2.32198e-16 	-5.60533e-17 20 	-1.80404e-16 	-4.92282e-17 20 	-1.45809e-16 	-1.34011e-16 20 	-1.45809e-16 	-1.34011e-16 20 	-1.45809e-16 	-1.34011e-16 20 	-1.45809e-16 	-1.34011e-16 20 	-1.76854e-16 	-8.41756e-17 20 	-2.87386e-16 	-4.97478e-17 20 	-2.87386e-16 	-4.97478e-17 20 	-2.87386e-16 	-4.97478e-17 20 	-2.87386e-16 	-4.97478e-17 20 	-2.68319e-16 	-1.67539e-17 20 	-3.97875e-16 	1.23212e-17 20 	-3.97875e-16 	1.23212e-17 20 	-3.97875e-16 	1.23212e-17 20 	-3.97875e-16 	1.23212e-17 20 	-3.65379e-16 	5.05561e-17 20 	-6.2473e-16 	9.3022e-17 20 	-9.07384e-16 	1.28638e-16 20 	-1.19004e-15 	1.64254e-16 20 	-1.47269e-15 	1.99869e-16 20 	-1.59017e-15 	2.33877e-16
20 	-1.89793e-16 	-1.72808e-17 20 	-1.8944e-16 	-1.721e-17 20 	-1.89088e-16 	-1.71391e-17 20 	-1.88736e-16 	-1.70683e-17 20 	-1.88383e-16 	-1.69975e-17 20 	-1.88031e-16 	-1.69266e-17 20 	-1.67256e-16 	7.78092e-17 20 	-1.6331e-16 	8.20831e-17 20 	-1.6331e-16 	8.20831e-17 20 	-1.6331e-16 	8.20831e-17 20 	-1.16209e-16 	6.08687e-17 20 	-7.67032e-17 	3.67397e-17 20 	-7.11505e-17 	3.31862e-17 20 	-7.11505e-17 	3.31862e-17 20 	-7.11505e-17 	3.31862e-17 20 	-1.51374e-17 	-3.81449e-18 20 	9.07117e-17 	-3.53533e-17 20 	9.43157e-17 	-3.79152e-17 20 	9.43157e-17 	-3.79152e-17 20 	9.43157e-17 	-3.79152e-17 20 	5.04627e-17 	-5.04473e-17 20 	1.30149e-16 	-8.17641e-18 20 	1.32662e-16 	-9.05725e-18 20 	1.32662e-16 	-9.05725e-18 20 	1.32662e-16 	-9.05725e-18 20 	9.62113e-17 	-6.64807e-17 20 	1.26579e-16 	-8.93891e-17 20 	1.27039e-16 	-9.17719e-17 20 	1.27039e-16 	-9.17719e-17 20 	1.27039e-16 	-9.17719e-17 20 	1.04573e-16 	-1.09853e-16 20 	2.96353e-17 	-1.38345e-16 20 	2.29335e-17 	-1.40735e-16 20 	2.29335e-17 	-1.40735e-16 20 	2.29335e-17 	-1.40735e-16 20 	-1.74163e-17 	-1.53358e-16 20 	-7.76254e-17 	-1.77736e-16 20 	-8.19038e-17 	-1.77699e-16 20 	-8.19038e-17 	-1.77699e-16 20 	-8.19038e-17 	-1.77699e-16 20 	-9.5292e-17 	-1.52688e-16 20 	-8.26925e-17 	-7.66334e-17 20 	-8.11008e-17 	-7.24746e-17 20 	-8.11008e-17 	-7.24746e-17 20 	-8.11008e-17 	-7.24746e-17 20 	-6.63184e-17 	-7.69871e-17 20 	-3.5684e-17 	-3.67878e-17 20 	-3.40879e-17 	-3.48361e-17 20 	-3.40879e-17 	-3.48361e-17 20 	-3.40879e-17 	-3.48361e-17 20 	-3.72649e-17 	-4.14616e-17 20 	-9.25205e-17 	3.52614e-18 20 	-9.60828e-17 	8.26468e-18 20 	-9.60828e-17 	8.26468e-18 20 	-9.60828e-17 	8.26468e-18 20 	-1.02106e-16 	4.4791e-17 20 	-2.2652e-16 	8.31769e-17 20 	-2.34345e-16 	8.49169e-17 20 	-2.34345e-16 	8.49169e-17 20 	-2.34345e-16 	8.49169e-17 20 	-2.44543e-16 	7.64641e-17 20 	-2.9216e-16 	-6.45486e-17 20 	-2.91917e-16 	-7.23492e-17 20 	-2.91917e-16 	-7.23492e-17 20 	-2.91917e-16 	-7.23492e-17 20 	-2.40123e-16 	-6.55241e-17 20 	-2.04612e-16 	-1.5932e-16 20 	-2.04353e-16 	-1.61875e-16 20 	-2.04353e-16 	-1.61875e-16 20 	-2.04353e-16 	-1.61875e-16 20 	-2.35398e-16 	-1.1204e-16 20 	-3.69518e-16 	-6.0224e-17 20 	-3.76206e-16 	-5.52938e-17 20 	-3.76206e-16 	-5.52938e-17 20 	-3.76206e-16 	-5.52938e-17 20 	-3.5714e-16 	-2.22999e-17 20 	-5.11728e-16 	2.41347e-17 20 	-5.18825e-16 	2.90567e-17 20 	-5.18825e-16 	2.90567e-17 20 	-5.18825e-16 	2.90567e-17 20 	-4.8633e-16 	6.72916e-17 20 	-7.01523e-16 	1.11743e-16 20 	-9.71657e-16 	1.47922e-16 20 	-1.25431e-15 	1.83538e-16 20 	-1.53696e-15 	2.19154e-16 20 	-1.65444e-15 	2.53161e-16
20 	-2.36556e-16 	-2.14905e-17 20 	-2.36204e-16 	-2.14196e-17 20 	-2.35851e-16 	-2.13488e-17 20 	-2.35499e-16 	-2.1278e-17 20 	-2.35147e-16 	-2.12071e-17 20 	-2.34794e-16 	-2.11363e-17 20 	-2.14019e-16 	7.35995e-17 20 	-1.92212e-16 	9.72212e-17 20 	-1.92212e-16 	9.72212e-17 20 	-1.92212e-16 	9.72212e-17 20 	-1.45111e-16 	7.60068e-17 20 	-1.05605e-16 	5.18778e-17 20 	-7.49152e-17 	3.22375e-17 20 	-7.49152e-17 	3.22375e-17 20 	-7.49152e-17 	3.22375e-17 20 	-1.89021e-17 	-4.76316e-18 20 	8.6947e-17 	-3.6302e-17 20 	1.06866e-16 	-5.04615e-17 20 	1.06866e-16 	-5.04615e-17 20 	1.06866e-16 	-5.04615e-17 20 	6.30128e-17 	-6.29935e-17 20 	1.42699e-16 	-2.07227e-17 20 	1.5659e-16 	-2.5591e-17 20 	1.5659e-16 	-2.5591e-17 20 	1.5659e-16 	-2.5591e-17 20 	1.20139e-16 	-8.30144e-17 20 	1.50507e-16 	-1.05923e-16 20 	1.53046e-16 	-1.19092e-16 20 	1.53046e-16 	-1.19092e-16 20 	1.53046e-16 	-1.19092e-16 20 	1.3058e-16 	-1.37174e-16 20 	5.56426e-17 	-1.65666e-16 20 	1.8602e-17 	-1.78875e-16 20 	1.8602e-17 	-1.78875e-16 20 	1.8602e-17 	-1.78875e-16 20 	-2.17477e-17 	-1.91498e-16 20 	-8.19569e-17 	-2.15876e-16 20 	-1.05603e-16 	-2.15673e-16 20 	-1.05603e-16 	-2.15673e-16 20 	-1.05603e-16 	-2.15673e-16 20 	-1.18991e-16 	-1.90661e-16 20 	-1.06392e-16 	-1.14607e-16 20 	-9.75942e-17 	-9.16213e-17 20 	-9.75942e-17 	-9.16213e-17 20 	-9.75942e-17 	-9.16213e-17 20 	-8.28118e-17 	-9.61338e-17 20 	-5.21774e-17 	-5.59345e-17 20 	-4.33557e-17 	-4.51476e-17 20 	-4.33557e-17 	-4.51476e-17 20 	-4.33557e-17 	-4.51476e-17 20 	-4.65327e-17 	-5.17731e-17 20 	-1.01788e-16 	-6.78538e-18 20 	-1.21477e-16 	1.94042e-17 20 	-1.21477e-16 	1.94042e-17 20 	-1.21477e-16 	1.94042e-17 20 	-1.275e-16 	5.59305e-17 20 	-2.51914e-16 	9.43164e-17 20 	-2.95163e-16 	1.03934e-16 20 	-2.95163e-16 	1.03934e-16 20 	-2.95163e-16 	1.03934e-16 20 	-3.05362e-16 	9.54807e-17 20 	-3.52978e-16 	-4.5532e-17 20 	-3.51636e-16 	-8.8645e-17 20 	-3.51636e-16 	-8.8645e-17 20 	-3.51636e-16 	-8.8645e-17 20 	-2.99841e-16 	-8.182e-17 20 	-2.64331e-16 	-1.75616e-16 20 	-2.62896e-16 	-1.8974e-16 20 	-2.62896e-16 	-1.8974e-16 20 	-2.62896e-16 	-1.8974e-16 20 	-2.93941e-16 	-1.39904e-16 20 	-4.28062e-16 	-8.80884e-17 20 	-4.65027e-16 	-6.08399e-17 20 	-4.65027e-16 	-6.08399e-17 20 	-4.65027e-16 	-6.08399e-17 20 	-4.45961e-16 	-2.7846e-17 20 	-6.00549e-16 	1.85887e-17 20 	-6.39776e-16 	4.57921e-17 20 	-6.39776e-16 	4.57921e-17 20 	-6.39776e-16 	4.57921e-17 20 	-6.0728e-16 	8.40271e-17 20 	-8.22473e-16 	1.28479e-16 20 	-1.03593e-15 	1.67207e-16 20 	-1.31858e-15 	2.02822e-16 20 	-1.60124e-15 	2.38438e-16 20 	-1.71871e-15 	2.72445e-16
20 	-2.8332e-16 	-2.57001e-17 20 	-2.82967e-16 	-2.56293e-17 20 	-2.82615e-16 	-2.55585e-17 20 	-2.82262e-16 	-2.54876e-17 20 	-2.8191e-16 	-2.54168e-17 20 	-2.81558e-16 	-2.5346e-17 20 	-2.60783e-16 	6.93899e-17 20 	-2.21113e-16 	1.12359e-16 20 	-2.21113e-16 	1.12359e-16 20 	-2.21113e-16 	1.12359e-16 20 	-1.74012e-16 	9.11449e-17 20 	-1.34506e-16 	6.70159e-17 20 	-7.86799e-17 	3.12888e-17 20 	-7.86799e-17 	3.12888e-17 20 	-7.86799e-17 	3.12888e-17 20 	-2.26668e-17 	-5.71182e-18 20 	8.31824e-17 	-3.72506e-17 20 	1.19416e-16 	-6.30077e-17 20 	1.19416e-16 	-6.30077e-17 20 	1.19416e-16 	-6.30077e-17 20 	7.5563e-17 	-7.55398e-17 20 	1.55249e-16 	-3.32689e-17 20 	1.80518e-16 	-4.21248e-17 20 	1.80518e-16 	-4.21248e-17 20 	1.80518e-16 	-4.21248e-17 20 	1.44067e-16 	-9.95482e-17 20 	1.74435e-16 	-1.22457e-16 20 	1.79053e-16 	-1.46413e-16 20 	1.79053e-16 	-1.46413e-16 20 	1.79053e-16 	-1.46413e-16 20 	1.56587e-16 	-1.64494e-16 20 	8.16498e-17 	-1.92986e-16 20 	1.42706e-17 	-2.17016e-16 20 	1.42706e-17 	-2.17016e-16 20 	1.42706e-17 	-2.17016e-16 20 	-2.60792e-17 	-2.29639e-16 20 	-8.62883e-17 	-2.54016e-16 20 	-1.29302e-16 	-2.53646e-16 20 	-1.29302e-16 	-2.53646e-16 20 	-1.29302e-16 	-2.53646e-16 20 	-1.4269e-16 	-2.28635e-16 20 	-1.30091e-16 	-1.52581e-16 20 	-1.14088e-16 	-1.10768e-16 20 	-1.14088e-16 	-1.10768e-16 20 	-1.14088e-16 	-1.10768e-16 20 	-9.93053e-17 	-1.1528e-16 20 	-6.86709e-17 	-7.50812e-17 20 	-5.26235e-17 	-5.54591e-17 20 	-5.26235e-17 	-5.54591e-17 20 	-5.26235e-17 	-5.54591e-17 20 	-5.58005e-17 	-6.20846e-17 20 	-1.11056e-16 	-1.70969e-17 20 	-1.46871e-16 	3.05438e-17 20 	-1.46871e-16 	3.05438e-17 20 	-1.46871e-16 	3.05438e-17 20 	-1.52894e-16 	6.70701e-17 20 	-2.77308e-16 	1.05456e-16 20 	-3.55981e-16 	1.2295e-16 20 	-3.55981e-16 	1.2295e-16 20 	-3.55981e-16 	1.2295e-16 20 	-3.6618e-16 	1.14497e-16 20 	-4.13796e-16 	-2.65153e-17 20 	-4.11354e-16 	-1.04941e-16 20 	-4.11354e-16 	-1.04941e-16 20 	-4.11354e-16 	-1.04941e-16 20 	-3.5956e-16 	-9.81159e-17 20 	-3.2405e-16 	-1.91912e-16 20 	-3.2144e-16 	-2.17604e-16 20 	-3.2144e-16 	-2.17604e-16 20 	-3.2144e-16 	-2.17604e-16 20 	-3.52485e-16 	-1.67769e-16 20 	-4.86605e-16 	-1.15953e-16 20 	-5.53848e-16 	-6.63859e-17 20 	-5.53848e-16 	-6.63859e-17 20 	-5.53848e-16 	-6.63859e-17 20 	-5.34782e-16 	-3.3392e-17 20 	-6.8937e-16 	1.30427e-17 20 	-7.60726e-16 	6.25276e-17 20 	-7.60726e-16 	6.25276e-17 20 	-7.60726e-16 	6.25276e-17 20 	-7.28231e-16 	1.00763e-16 20 	-9.43424e-16 	1.45214e-16 20 	-1.1002e-15 	1.86491e-16 20 	-1.38286e-15 	2.22107e-16 20 	-1.66551e-15 	2.57723e-16 20 	-1.78299e-15 	2.9173e-16