# vtk DataFile Version 2.0
track0
ASCII
DATASET POLYDATA
POINTS 1720 double
-1.001 -0.05 0.0011
-1.0008 -0.05 0.0011
-1.0006 -0.05 0.0011
-1.0004 -0.05 0.0011
-1.0002 -0.05 0.0011
-1 -0.05 0.0011
-0.8 -0.05 0.0011
-0.6 -0.05 0.0011
-0.4 -0.05 0.0011
-0.2 -0.05 0.0011
0 -0.05 0.0011
0.2 -0.05 0.0011
0.4 -0.05 0.0011
0.6 -0.05 0.0011
0.8 -0.05 0.0011
1 -0.05 0.0011
1.2 -0.05 0.0011
1.4 -0.05 0.0011
1.6 -0.05 0.0011
1.8 -0.05 0.0011
2 -0.05 0.0011
2.2 -0.05 0.0011
2.4 -0.05 0.0011
2.6 -0.05 0.0011
2.8 -0.05 0.0011
3 -0.05 0.0011
3.2 -0.05 0.0011
3.4 -0.05 0.0011
3.6 -0.05 0.0011
3.8 -0.05 0.0011
4 -0.05 0.0011
4.2 -0.05 0.0011
4.4 -0.05 0.0011
4.6 -0.05 0.0011
4.8 -0.05 0.0011
5 -0.05 0.0011
5.2 -0.05 0.0011
5.4 -0.05 0.0011
5.6 -0.05 0.0011
5.8 -0.05 0.0011
6 -0.05 0.0011
6.2 -0.05 0.0011
6.4 -0.05 0.0011
6.6 -0.05 0.0011
6.8 -0.05 0.0011
7 -0.05 0.0011
7.2 -0.05 0.0011
7.4 -0.05 0.0011
7.6 -0.05 0.0011
7.8 -0.05 0.0011
8 -0.05 0.0011
8.2 -0.05 0.0011
8.4 -0.05 0.0011
8.6 -0.05 0.0011
8.8 -0.05 0.0011
9 -0.05 0.0011
9.2 -0.05 0.0011
9.4 -0.05 0.0011
9.6 -0.05 0.0011
9.8 -0.05 0.0011
10 -0.05 0.0011
10.2 -0.05 0.0011
10.4 -0.05 0.0011
10.6 -0.05 0.0011
10.8 -0.05 0.0011
11 -0.05 0.0011
11.2 -0.05 0.0011
11.4 -0.05 0.0011
11.6 -0.05 0.0011
11.8 -0.05 0.0011
12 -0.05 0.0011
12.2 -0.05 0.0011
12.4 -0.05 0.0011
12.6 -0.05 0.0011
12.8 -0.05 0.0011
13 -0.05 0.0011
13.2 -0.05 0.0011
13.4 -0.05 0.0011
13.6 -0.05 0.0011
13.8 -0.05 0.0011
14 -0.05 0.0011
14.2 -0.05 0.0011
14.4 -0.05 0.0011
14.6 -0.05 0.0011
14.8 -0.05 0.0011
15 -0.05 0.0011
-1.001 -0.05 0.0537316
-1.0008 -0.05 0.0537316
-1.0006 -0.05 0.0537316
-1.0004 -0.05 0.0537316
-1.0002 -0.05 0.0537316
-1 -0.05 0.0537316
-0.8 -0.05 0.0537316
-0.6 -0.05 0.0537316
-0.4 -0.05 0.0537316
-0.2 -0.05 0.0537316
0 -0.05 0.0537316
0.2 -0.05 0.0537316
0.4 -0.05 0.0537316
0.6 -0.05 0.0537316
0.8 -0.05 0.0537316
1 -0.05 0.0537316
1.2 -0.05 0.0537316
1.4 -0.05 0.0537316
1.6 -0.05 0.0537316
1.8 -0.05 0.0537316
2 -0.05 0.0537316
2.2 -0.05 0.0537316
2.4 -0.05 0.0537316
2.6 -0.05 0.0537316
2.8 -0.05 0.0537316
3 -0.05 0.0537316
3.2 -0.05 0.0537316
3.4 -0.05 0.0537316
3.6 -0.05 0.0537316
3.8 -0.05 0.0537316
4 -0.05 0.0537316
4.2 -0.05 0.0537316
4.4 -0.05 0.0537316
4.6 -0.05 0.0537316
4.8 -0.05 0.0537316
5 -0.05 0.0537316
5.2 -0.05 0.0537316
5.4 -0.05 0.0537316
5.6 -0.05 0.0537316
5.8 -0.05 0.0537316
6 -0.05 0.0537316
6.2 -0.05 0.0537316
6.4 -0.05 0.0537316
6.6 -0.05 0.0537316
6.8 -0.05 0.0537316
7 -0.05 0.0537316
7.2 -0.05 0.0537316
7.4 -0.05 0.0537316
7.6 -0.05 0.0537316
7.8 -0.05 0.0537316
8 -0.05 0.0537316
8.2 -0.05 0.0537316
8.4 -0.05 0.0537316
8.6 -0.05 0.0537316
8.8 -0.05 0.0537316
9 -0.05 0.0537316
9.2 -0.05 0.0537316
9.4 -0.05 0.0537316
9.6 -0.05 0.0537316
9.8 -0.05 0.0537316
10 -0.05 0.0537316
10.2 -0.05 0.0537316
10.4 -0.05 0.0537316
10.6 -0.05 0.0537316
10.8 -0.05 0.0537316
11 -0.05 0.0537316
11.2 -0.05 0.0537316
11.4 -0.05 0.0537316
11.6 -0.05 0.0537316
11.8 -0.05 0.0537316
12 -0.05 0.0537316
12.2 -0.05 0.0537316
12.4 -0.05 0.0537316
12.6 -0.05 0.0537316
12.8 -0.05 0.0537316
13 -0.05 0.0537316
13.2 -0.05 0.0537316
13.4 -0.05 0.0537316
13.6 -0.05 0.0537316
13.8 -0.05 0.0537316
14 -0.05 0.0537316
14.2 -0.05 0.0537316
14.4 -0.05 0.0537316
14.6 -0.05 0.0537316
14.8 -0.05 0.0537316
15 -0.05 0.0537316
-1.001 -0.05 0.106363
-1.0008 -0.05 0.106363
-1.0006 -0.05 0.106363
-1.0004 -0.05 0.106363
-1.0002 -0.05 0.106363
-1 -0.05 0.106363
-0.8 -0.05 0.106363
-0.6 -0.05 0.106363
-0.4 -0.05 0.106363
-0.2 -0.05 0.106363
0 -0.05 0.106363
0.2 -0.05 0.106363
0.4 -0.05 0.106363
0.6 -0.05 0.106363
0.8 -0.05 0.106363
1 -0.05 0.106363
1.2 -0.05 0.106363
1.4 -0.05 0.106363
1.6 -0.05 0.106363
1.8 -0.05 0.106363
2 -0.05 0.106363
2.2 -0.05 0.106363
2.4 -0.05 0.106363
2.6 -0.05 0.106363
2.8 -0.05 0.106363
3 -0.05 0.106363
3.2 -0.05 0.106363
3.4 -0.05 0.106363
3.6 -0.05 0.106363
3.8 -0.05 0.106363
4 -0.05 0.106363
4.2 -0.05 0.106363
4.4 -0.05 0.106363
4.6 -0.05 0.106363
4.8 -0.05 0.106363
5 -0.05 0.106363
5.2 -0.05 0.106363
5.4 -0.05 0.106363
5.6 -0.05 0.106363
5.8 -0.05 0.106363
6 -0.05 0.106363
6.2 -0.05 0.106363
6.4 -0.05 0.106363
6.6 -0.05 0.106363
6.8 -0.05 0.106363
7 -0.05 0.106363
7.2 -0.05 0.106363
7.4 -0.05 0.106363
7.6 -0.05 0.106363
7.8 -0.05 0.106363
8 -0.05 0.106363
8.2 -0.05 0.106363
8.4 -0.05 0.106363
8.6 -0.05 0.106363
8.8 -0.05 0.106363
9 -0.05 0.106363
9.2 -0.05 0.106363
9.4 -0.05 0.106363
9.6 -0.05 0.106363
9.8 -0.05 0.106363
10 -0.05 0.106363
10.2 -0.05 0.106363
10.4 -0.05 0.106363
10.6 -0.05 0.106363
10.8 -0.05 0.106363
11 -0.05 0.106363
11.2 -0.05 0.106363
11.4 -0.05 0.106363
11.6 -0.05 0.106363
11.8 -0.05 0.106363
12 -0.05 0.106363
12.2 -0.05 0.106363
12.4 -0.05 0.106363
12.6 -0.05 0.106363
12.8 -0.05 0.106363
13 -0.05 0.106363
13.2 -0.05 0.106363
13.4 -0.05 0.106363
13.6 -0.05 0.106363
13.8 -0.05 0.106363
14 -0.05 0.106363
14.2 -0.05 0.106363
14.4 -0.05 0.106363
14.6 -0.05 0.106363
14.8 -0.05 0.106363
15 -0.05 0.106363
-1.001 -0.05 0.158995
-1.0008 -0.05 0.158995
-1.0006 -0.05 0.158995
-1.0004 -0.05 0.158995
-1.0002 -0.05 0.158995
-1 -0.05 0.158995
-0.8 -0.05 0.158995
-0.6 -0.05 0.158995
-0.4 -0.05 0.158995
-0.2 -0.05 0.158995
0 -0.05 0.158995
0.2 -0.05 0.158995
0.4 -0.05 0.158995
0.6 -0.05 0.158995
0.8 -0.05 0.158995
1 -0.05 0.158995
1.2 -0.05 0.158995
1.4 -0.05 0.158995
1.6 -0.05 0.158995
1.8 -0.05 0.158995
2 -0.05 0.158995
2.2 -0.05 0.158995
2.4 -0.05 0.158995
2.6 -0.05 0.158995
2.8 -0.05 0.158995
3 -0.05 0.158995
3.2 -0.05 0.158995
3.4 -0.05 0.158995
3.6 -0.05 0.158995
3.8 -0.05 0.158995
4 -0.05 0.158995
4.2 -0.05 0.158995
4.4 -0.05 0.158995
4.6 -0.05 0.158995
4.8 -0.05 0.158995
5 -0.05 0.158995
5.2 -0.05 0.158995
5.4 -0.05 0.158995
5.6 -0.05 0.158995
5.8 -0.05 0.158995
6 -0.05 0.158995
6.2 -0.05 0.158995
6.4 -0.05 0.158995
6.6 -0.05 0.158995
6.8 -0.05 0.158995
7 -0.05 0.158995
7.2 -0.05 0.158995
7.4 -0.05 0.158995
7.6 -0.05 0.158995
7.8 -0.05 0.158995
8 -0.05 0.158995
8.2 -0.05 0.158995
8.4 -0.05 0.158995
8.6 -0.05 0.158995
8.8 -0.05 0.158995
9 -0.05 0.158995
9.2 -0.05 0.158995
9.4 -0.05 0.158995
9.6 -0.05 0.158995
9.8 -0.05 0.158995
10 -0.05 0.158995
10.2 -0.05 0.158995
10.4 -0.05 0.158995
10.6 -0.05 0.158995
10.8 -0.05 0.158995
11 -0.05 0.158995
11.2 -0.05 0.158995
11.4 -0.05 0.158995
11.6 -0.05 0.158995
11.8 -0.05 0.158995
12 -0.05 0.158995
12.2 -0.05 0.158995
12.4 -0.05 0.158995
12.6 -0.05 0.158995
12.8 -0.05 0.158995
13 -0.05 0.158995
13.2 -0.05 0.158995
13.4 -0.05 0.158995
13.6 -0.05 0.158995
13.8 -0.05 0.158995
14 -0.05 0.158995
14.2 -0.05 0.158995
14.4 -0.05 0.158995
14.6 -0.05 0.158995
14.8 -0.05 0.158995
15 -0.05 0.158995
-1.001 -0.05 0.211626
-1.0008 -0.05 0.211626
-1.0006 -0.05 0.211626
-1.0004 -0.05 0.211626
-1.0002 -0.05 0.211626
-1 -0.05 0.211626
-0.8 -0.05 0.211626
-0.6 -0.05 0.211626
-0.4 -0.05 0.211626
-0.2 -0.05 0.211626
0 -0.05 0.211626
0.2 -0.05 0.211626
0.4 -0.05 0.211626
0.6 -0.05 0.211626
0.8 -0.05 0.211626
1 -0.05 0.211626
1.2 -0.05 0.211626
1.4 -0.05 0.211626
1.6 -0.05 0.211626
1.8 -0.05 0.211626
2 -0.05 0.211626
2.2 -0.05 0.211626
2.4 -0.05 0.211626
2.6 -0.05 0.211626
2.8 -0.05 0.211626
3 -0.05 0.211626
3.2 -0.05 0.211626
3.4 -0.05 0.211626
3.6 -0.05 0.211626
3.8 -0.05 0.211626
4 -0.05 0.211626
4.2 -0.05 0.211626
4.4 -0.05 0.211626
4.6 -0.05 0.211626
4.8 -0.05 0.211626
5 -0.05 0.211626
5.2 -0.05 0.211626
5.4 -0.05 0.211626
5.6 -0.05 0.211626
5.8 -0.05 0.211626
6 -0.05 0.211626
6.2 -0.05 0.211626
6.4 -0.05 0.211626
6.6 -0.05 0.211626
6.8 -0.05 0.211626
7 -0.05 0.211626
7.2 -0.05 0.211626
7.4 -0.05 0.211626
7.6 -0.05 0.211626
7.8 -0.05 0.211626
8 -0.05 0.211626
8.2 -0.05 0.211626
8.4 -0.05 0.211626
8.6 -0.05 0.211626
8.8 -0.05 0.211626
9 -0.05 0.211626
9.2 -0.05 0.211626
9.4 -0.05 0.211626
9.6 -0.05 0.211626
9.8 -0.05 0.211626
10 -0.05 0.211626
10.2 -0.05 0.211626
10.4 -0.05 0.211626
10.6 -0.05 0.211626
10.8 -0.05 0.211626
11 -0.05 0.211626
11.2 -0.05 0.211626
11.4 -0.05 0.211626
11.6 -0.05 0.211626
11.8 -0.05 0.211626
12 -0.05 0.211626
12.2 -0.05 0.211626
12.4 -0.05 0.211626
12.6 -0.05 0.211626
12.8 -0.05 0.211626
13 -0.05 0.211626
13.2 -0.05 0.211626
13.4 -0.05 0.211626
13.6 -0.05 0.211626
13.8 -0.05 0.211626
14 -0.05 0.211626
14.2 -0.05 0.211626
14.4 -0.05 0.211626
14.6 -0.05 0.211626
14.8 -0.05 0.211626
15 -0.05 0.211626
-1.001 -0.05 0.264258
-1.0008 -0.05 0.264258
-1.0006 -0.05 0.264258
-1.0004 -0.05 0.264258
-1.0002 -0.05 0.264258
-1 -0.05 0.264258
-0.8 -0.05 0.264258
-0.6 -0.05 0.264258
-0.4 -0.05 0.264258
-0.2 -0.05 0.264258
0 -0.05 0.264258
0.2 -0.05 0.264258
0.4 -0.05 0.264258
0.6 -0.05 0.264258
0.8 -0.05 0.264258
1 -0.05 0.264258
1.2 -0.05 0.264258
1.4 -0.05 0.264258
1.6 -0.05 0.264258
1.8 -0.05 0.264258
2 -0.05 0.264258
2.2 -0.05 0.264258
2.4 -0.05 0.264258
2.6 -0.05 0.264258
2.8 -0.05 0.264258
3 -0.05 0.264258
3.2 -0.05 0.264258
3.4 -0.05 0.264258
3.6 -0.05 0.264258
3.8 -0.05 0.264258
4 -0.05 0.264258
4.2 -0.05 0.264258
4.4 -0.05 0.264258
4.6 -0.05 0.264258
4.8 -0.05 0.264258
5 -0.05 0.264258
5.2 -0.05 0.264258
5.4 -0.05 0.264258
5.6 -0.05 0.264258
5.8 -0.05 0.264258
6 -0.05 0.264258
6.2 -0.05 0.264258
6.4 -0.05 0.264258
6.6 -0.05 0.264258
6.8 -0.05 0.264258
7 -0.05 0.264258
7.2 -0.05 0.264258
7.4 -0.05 0.264258
7.6 -0.05 0.264258
7.8 -0.05 0.264258
8 -0.05 0.264258
8.2 -0.05 0.264258
8.4 -0.05 0.264258
8.6 -0.05 0.264258
8.8 -0.05 0.264258
9 -0.05 0.264258
9.2 -0.05 0.264258
9.4 -0.05 0.264258
9.6 -0.05 0.264258
9.8 -0.05 0.264258
10 -0.05 0.264258
10.2 -0.05 0.264258
10.4 -0.05 0.264258
10.6 -0.05 0.264258
10.8 -0.05 0.264258
11 -0.05 0.264258
11.2 -0.05 0.264258
11.4 -0.05 0.264258
11.6 -0.05 0.264258
11.8 -0.05 0.264258
12 -0.05 0.264258
12.2 -0.05 0.264258
12.4 -0.05 0.264258
12.6 -0.05 0.264258
12.8 -0.05 0.264258
13 -0.05 0.264258
13.2 -0.05 0.264258
13.4 -0.05 0.264258
13.6 -0.05 0.264258
13.8 -0.05 0.264258
14 -0.05 0.264258
14.2 -0.05 0.264258
14.4 -0.05 0.264258
14.6 -0.05 0.264258
14.8 -0.05 0.264258
15 -0.05 0.264258
-1.001 -0.05 0.316889
-1.0008 -0.05 0.316889
-1.0006 -0.05 0.316889
-1.0004 -0.05 0.316889
[...]
POINT_DATA 1720
 FIELD attributes 2
p 1 1720 float
-1.24917e-13 -1.24913e-13 -1.24909e-13 -1.24904e-13 -1.249e-13 -1.24896e-13 -1.21795e-13 -1.18699e-13 -1.15603e-13 -1.12508e-13 -1.0934e-13 -1.08132e-13 -1.06939e-13 -1.05747e-13 -1.04555e-13 -1.0328e-13 -1.02147e-13 -1.01019e-13 -9.98905e-14 -9.8762e-14 -9.76314e-14 -9.52536e-14 -9.28605e-14 -9.04675e-14 -8.80745e-14 -8.57674e-14 -8.29177e-14 -8.0057e-14 -7.71963e-14 -7.43355e-14 -7.14892e-14 -7.01309e-14 -6.87749e-14 -6.7419e-14 -6.60631e-14 -6.48395e-14 -6.51082e-14 -6.53828e-14 -6.56574e-14 -6.5932e-14 -6.61506e-14 -6.47215e-14 -6.3278e-14 -6.18345e-14 -6.03911e-14 -5.86239e-14 -5.57686e-14 -5.29208e-14 -5.00731e-14 -4.72253e-14 -4.44032e-14 -4.41248e-14 -4.38522e-14 -4.35796e-14 -4.33071e-14 -4.28873e-14 -4.24321e-14 -4.19624e-14 -4.14927e-14 -4.10229e-14 -4.02984e-14 -3.74557e-14 -3.46016e-14 -3.17475e-14 -2.88934e-14 -2.62459e-14 -2.26903e-14 -1.9131e-14 -1.55716e-14 -1.20123e-14 -8.73421e-15 -6.12905e-15 -3.53704e-15 -9.45031e-16 1.64698e-15 4.32584e-15 4.11129e-15 3.87438e-15 3.63746e-15 3.40054e-15 3.19447e-15 2.43186e-15 1.66234e-15 8.92825e-16 1.23306e-16 -7.86968e-16
-1.24984e-13 -1.2498e-13 -1.24976e-13 -1.24972e-13 -1.24968e-13 -1.24964e-13 -1.21619e-13 -1.18523e-13 -1.15427e-13 -1.12332e-13 -1.09453e-13 -1.07523e-13 -1.06331e-13 -1.05139e-13 -1.03947e-13 -1.03191e-13 -1.01884e-13 -1.00755e-13 -9.9627e-14 -9.84986e-14 -9.74496e-14 -9.57517e-14 -9.33586e-14 -9.09656e-14 -8.85726e-14 -8.56939e-14 -8.33481e-14 -8.04874e-14 -7.76266e-14 -7.47659e-14 -7.15571e-14 -7.00929e-14 -6.8737e-14 -6.73811e-14 -6.60252e-14 -6.49383e-14 -6.49385e-14 -6.52131e-14 -6.54877e-14 -6.57623e-14 -6.61768e-14 -6.53805e-14 -6.3937e-14 -6.24936e-14 -6.10501e-14 -5.85779e-14 -5.53883e-14 -5.25405e-14 -4.96927e-14 -4.6845e-14 -4.43251e-14 -4.37779e-14 -4.35053e-14 -4.32327e-14 -4.29601e-14 -4.26625e-14 -4.28509e-14 -4.23812e-14 -4.19115e-14 -4.14417e-14 -4.00203e-14 -3.7705e-14 -3.48509e-14 -3.19967e-14 -2.91426e-14 -2.62435e-14 -2.28673e-14 -1.9308e-14 -1.57486e-14 -1.21893e-14 -8.89987e-15 -5.72194e-15 -3.12993e-15 -5.37925e-16 2.05408e-15 3.98962e-15 4.77629e-15 4.53937e-15 4.30245e-15 4.06553e-15 2.94928e-15 2.51457e-15 1.74505e-15 9.75533e-16 2.06014e-16 -7.43685e-16
-1.25052e-13 -1.25048e-13 -1.25043e-13 -1.25039e-13 -1.25035e-13 -1.25031e-13 -1.21732e-13 -1.18637e-13 -1.15541e-13 -1.12445e-13 -1.09567e-13 -1.07435e-13 -1.06242e-13 -1.0505e-13 -1.03858e-13 -1.03102e-13 -1.01702e-13 -1.00574e-13 -9.94452e-14 -9.83168e-14 -9.72678e-14 -9.56781e-14 -9.32851e-14 -9.08921e-14 -8.84991e-14 -8.56203e-14 -8.3416e-14 -8.05553e-14 -7.76945e-14 -7.48338e-14 -7.16249e-14 -7.01917e-14 -6.88358e-14 -6.74799e-14 -6.6124e-14 -6.50371e-14 -6.49647e-14 -6.52393e-14 -6.55139e-14 -6.57885e-14 -6.6203e-14 -6.53345e-14 -6.3891e-14 -6.24475e-14 -6.10041e-14 -5.85318e-14 -5.53102e-14 -5.24624e-14 -4.96147e-14 -4.67669e-14 -4.42471e-14 -4.3553e-14 -4.32805e-14 -4.30079e-14 -4.27353e-14 -4.24377e-14 -4.25729e-14 -4.21031e-14 -4.16334e-14 -4.11636e-14 -3.97422e-14 -3.77026e-14 -3.48485e-14 -3.19944e-14 -2.91403e-14 -2.62412e-14 -2.3033e-14 -1.94736e-14 -1.59143e-14 -1.23549e-14 -9.06553e-15 -6.05816e-15 -3.46615e-15 -8.74142e-16 1.71787e-15 3.6534e-15 4.5311e-15 4.29418e-15 4.05726e-15 3.82034e-15 2.70409e-15 2.55785e-15 1.78834e-15 1.01882e-15 2.49297e-16 -7.00402e-16
-1.25119e-13 -1.25115e-13 -1.25111e-13 -1.25107e-13 -1.25103e-13 -1.25098e-13 -1.21846e-13 -1.1875e-13 -1.15654e-13 -1.12558e-13 -1.0968e-13 -1.07346e-13 -1.06154e-13 -1.04962e-13 -1.03769e-13 -1.03014e-13 -1.0152e-13 -1.00392e-13 -9.92634e-14 -9.81349e-14 -9.7086e-14 -9.56046e-14 -9.32116e-14 -9.08186e-14 -8.84256e-14 -8.55468e-14 -8.34839e-14 -8.06231e-14 -7.77624e-14 -7.49016e-14 -7.16928e-14 -7.02905e-14 -6.89346e-14 -6.75787e-14 -6.62228e-14 -6.51359e-14 -6.49909e-14 -6.52655e-14 -6.55401e-14 -6.58147e-14 -6.62292e-14 -6.52885e-14 -6.3845e-14 -6.24015e-14 -6.09581e-14 -5.84858e-14 -5.52321e-14 -5.23844e-14 -4.95366e-14 -4.66888e-14 -4.4169e-14 -4.33282e-14 -4.30556e-14 -4.27831e-14 -4.25105e-14 -4.22129e-14 -4.22948e-14 -4.1825e-14 -4.13553e-14 -4.08856e-14 -3.94641e-14 -3.77002e-14 -3.48461e-14 -3.1992e-14 -2.91379e-14 -2.62388e-14 -2.31986e-14 -1.96393e-14 -1.60799e-14 -1.25206e-14 -9.23119e-15 -6.39438e-15 -3.80237e-15 -1.21036e-15 1.38165e-15 3.31718e-15 4.28591e-15 4.04899e-15 3.81207e-15 3.57515e-15 2.4589e-15 2.60114e-15 1.83162e-15 1.0621e-15 2.9258e-16 -6.5712e-16
-1.25187e-13 -1.25183e-13 -1.25178e-13 -1.25174e-13 -1.2517e-13 -1.25166e-13 -1.21949e-13 -1.18863e-13 -1.15768e-13 -1.12672e-13 -1.09793e-13 -1.07302e-13 -1.06065e-13 -1.04873e-13 -1.03681e-13 -1.02925e-13 -1.01359e-13 -1.0021e-13 -9.90816e-14 -9.79531e-14 -9.69042e-14 -9.55071e-14 -9.31381e-14 -9.0745e-14 -8.8352e-14 -8.54733e-14 -8.35205e-14 -8.0691e-14 -7.78303e-14 -7.49695e-14 -7.17607e-14 -7.03825e-14 -6.90334e-14 -6.76775e-14 -6.63216e-14 -6.52347e-14 -6.50332e-14 -6.52917e-14 -6.55663e-14 -6.58409e-14 -6.62554e-14 -6.52584e-14 -6.3799e-14 -6.23555e-14 -6.0912e-14 -5.84398e-14 -5.51611e-14 -5.23063e-14 -4.94585e-14 -4.66107e-14 -4.40909e-14 -4.31358e-14 -4.28308e-14 -4.25582e-14 -4.22856e-14 -4.1988e-14 -4.20285e-14 -4.1547e-14 -4.10772e-14 -4.06075e-14 -3.91861e-14 -3.7637e-14 -3.48438e-14 -3.19897e-14 -2.91356e-14 -2.62365e-14 -2.33272e-14 -1.98049e-14 -1.62456e-14 -1.26863e-14 -9.39684e-15 -6.69292e-15 -4.13858e-15 -1.54658e-15 1.04543e-15 2.98097e-15 4.02061e-15 3.8038e-15 3.56688e-15 3.32996e-15 2.21371e-15 2.5807e-15 1.8749e-15 1.10538e-15 3.35863e-16 -6.13837e-16
-1.25254e-13 -1.2525e-13 -1.25246e-13 -1.25242e-13 -1.25238e-13 -1.25233e-13 -1.22016e-13 -1.18977e-13 -1.15881e-13 -1.12785e-13 -1.09907e-13 -1.07415e-13 -1.05976e-13 -1.04784e-13 -1.03592e-13 -1.02836e-13 -1.0127e-13 -1.00028e-13 -9.88998e-14 -9.77713e-14 -9.67224e-14 -9.53253e-14 -9.30645e-14 -9.06715e-14 -8.82785e-14 -8.53997e-14 -8.3447e-14 -8.07589e-14 -7.78981e-14 -7.50374e-14 -7.18286e-14 -7.04504e-14 -6.91322e-14 -6.77763e-14 -6.64204e-14 -6.53335e-14 -6.5132e-14 -6.53179e-14 -6.55925e-14 -6.58671e-14 -6.62816e-14 -6.52846e-14 -6.3753e-14 -6.23095e-14 -6.0866e-14 -5.83938e-14 -5.51151e-14 -5.22282e-14 -4.93804e-14 -4.65326e-14 -4.40128e-14 -4.30577e-14 -4.2606e-14 -4.23334e-14 -4.20608e-14 -4.17632e-14 -4.18036e-14 -4.12689e-14 -4.07991e-14 -4.03294e-14 -3.8908e-14 -3.73589e-14 -3.48414e-14 -3.19873e-14 -2.91332e-14 -2.62341e-14 -2.33248e-14 -1.99706e-14 -1.64113e-14 -1.28519e-14 -9.5625e-15 -6.85857e-15 -4.4748e-15 -1.88279e-15 7.09216e-16 2.64475e-15 3.68439e-15 3.55861e-15 3.32169e-15 3.08477e-15 1.96852e-15 2.33551e-15 1.91818e-15 1.14866e-15 3.79145e-16 -5.70554e-16
-1.25322e-13 -1.25317e-13 -1.25313e-13 -1.25309e-13 -1.25305e-13 -1.25301e-13 -1.22084e-13 -1.1909e-13 -1.15995e-13 -1.12899e-13 -1.1002e-13 -1.07529e-13 -1.05888e-13 -1.04696e-13 -1.03503e-13 -1.02748e-13 -1.01182e-13 -9.98464e-14 -9.8718e-14 -9.75895e-14 -9.65406e-14 -9.51435e-14 -9.2991e-14 -9.0598e-14 -8.8205e-14 -8.53262e-14 -8.33735e-14 -8.08268e-14 -7.7966e-14 -7.51053e-14 -7.18964e-14 -7.05182e-14 -6.9231e-14 -6.78751e-14 -6.65192e-14 -6.54323e-14 -6.52308e-14 -6.53441e-14 -6.56187e-14 -6.58933e-14 -6.63078e-14 -6.53108e-14 -6.3707e-14 -6.22635e-14 -6.082e-14 -5.83478e-14 -5.50691e-14 -5.21501e-14 -4.93023e-14 -4.64546e-14 -4.39348e-14 -4.29797e-14 -4.23812e-14 -4.21086e-14 -4.1836e-14 -4.15384e-14 -4.15788e-14 -4.09908e-14 -4.05211e-14 -4.00513e-14 -3.86299e-14 -3.70808e-14 -3.48391e-14 -3.1985e-14 -2.91309e-14 -2.62318e-14 -2.33224e-14 -2.01362e-14 -1.65769e-14 -1.30176e-14 -9.72816e-15 -7.02423e-15 -4.81102e-15 -2.21901e-15 3.72999e-16 2.30853e-15 3.34817e-15 3.31342e-15 3.0765e-15 2.83958e-15 1.72333e-15 2.09032e-15 1.96147e-15 1.19195e-15 4.22428e-16 -5.27271e-16
-1.25389e-13 -1.25385e-13 -1.25381e-13 -1.25377e-13 -1.25372e-13 -1.25368e-13 -1.22151e-13 -1.19204e-13 -1.16108e-13 -1.13012e-13 -1.10134e-13 -1.07642e-13 -1.05799e-13 -1.04607e-13 -1.03415e-13 -1.02659e-13 -1.01093e-13 -9.96646e-14 -9.85362e-14 -9.74077e-14 -9.63588e-14 -9.49617e-14 -9.29175e-14 -9.05245e-14 -8.81314e-14 -8.52527e-14 -8.32999e-14 -8.08946e-14 -7.80339e-14 -7.51731e-14 -7.19643e-14 -7.05861e-14 -6.93298e-14 -6.79739e-14 -6.6618e-14 -6.55311e-14 -6.53296e-14 -6.53703e-14 -6.56449e-14 -6.59195e-14 -6.6334e-14 -6.5337e-14 -6.3661e-14 -6.22175e-14 -6.0774e-14 -5.83018e-14 -5.50231e-14 -5.2072e-14 -4.92243e-14 -4.63765e-14 -4.38567e-14 -4.29016e-14 -4.21564e-14 -4.18838e-14 -4.16112e-14 -4.13136e-14 -4.1354e-14 -4.07127e-14 -4.0243e-14 -3.97733e-14 -3.83518e-14 -3.68028e-14 -3.48367e-14 -3.19826e-14 -2.91285e-14 -2.62294e-14 -2.33201e-14 -2.03019e-14 -1.67426e-14 -1.31832e-14 -9.89381e-15 -7.18989e-15 -5.14724e-15 -2.55523e-15 3.67819e-17 1.97232e-15 3.01196e-15 3.06823e-15 2.83131e-15 2.59439e-15 1.47814e-15 1.84513e-15 2.00475e-15 1.23523e-15 4.65711e-16 -4.83988e-16
-1.25456e-13 -1.25452e-13 -1.25448e-13 -1.25444e-13 -1.2544e-13 -1.25436e-13 -1.22219e-13 -1.19298e-13 -1.16221e-13 -1.13126e-13 -1.10247e-13 -1.07756e-13 -1.05796e-13 -1.04518e-13 -1.03326e-13 -1.0257e-13 -1.01004e-13 -9.9522e-14 -9.83544e-14 -9.72259e-14 -9.6177e-14 -9.47799e-14 -9.27984e-14 -9.04509e-14 -8.80579e-14 -8.51791e-14 -8.32264e-14 -8.0903e-14 -7.81018e-14 -7.5241e-14 -7.20322e-14 -7.0654e-14 -6.94156e-14 -6.80727e-14 -6.67168e-14 -6.56299e-14 -6.54283e-14 -6.54271e-14 -6.56711e-14 -6.59457e-14 -6.63602e-14 -6.53632e-14 -6.36453e-14 -6.21715e-14 -6.0728e-14 -5.82558e-14 -5.49771e-14 -5.20075e-14 -4.91462e-14 -4.62984e-14 -4.37786e-14 -4.28235e-14 -4.19933e-14 -4.1659e-14 -4.13864e-14 -4.10888e-14 -4.11292e-14 -4.04571e-14 -3.99649e-14 -3.94952e-14 -3.80738e-14 -3.65247e-14 -3.47183e-14 -3.19803e-14 -2.91261e-14 -2.6227e-14 -2.33177e-14 -2.03968e-14 -1.69082e-14 -1.33489e-14 -1.00595e-14 -7.35555e-15 -5.41166e-15 -2.89144e-15 -2.99435e-16 1.6361e-15 2.67574e-15 2.78472e-15 2.58612e-15 2.3492e-15 1.23294e-15 1.59994e-15 1.92661e-15 1.27851e-15 5.08994e-16 -4.40705e-16
-1.25524e-13 -1.2552e-13 -1.25516e-13 -1.25512e-13 -1.25507e-13 -1.25503e-13 -1.22286e-13 -1.19365e-13 -1.16335e-13 -1.13239e-13 -1.10361e-13 -1.07869e-13 -1.05909e-13 -1.0443e-13 -1.03237e-13 -1.02482e-13 -1.00916e-13 -9.94334e-14 -9.81725e-14 -9.70441e-14 -9.59952e-14 -9.45981e-14 -9.26166e-14 -9.03774e-14 -8.79844e-14 -8.51056e-14 -8.31529e-14 -8.08295e-14 -7.81696e-14 -7.53089e-14 -7.21001e-14 -7.07219e-14 -6.94835e-14 -6.81715e-14 -6.68156e-14 -6.57287e-14 -6.55271e-14 -6.55259e-14 -6.56973e-14 -6.59719e-14 -6.63864e-14 -6.53894e-14 -6.36715e-14 -6.21255e-14 -6.0682e-14 -5.82098e-14 -5.49311e-14 -5.19615e-14 -4.90681e-14 -4.62203e-14 -4.37005e-14 -4.27454e-14 -4.19152e-14 -4.14341e-14 -4.11616e-14 -4.08639e-14 -4.09044e-14 -4.02323e-14 -3.96868e-14 -3.92171e-14 -3.77957e-14 -3.62466e-14 -3.44402e-14 -3.19779e-14 -2.91238e-14 -2.62247e-14 -2.33154e-14 -2.03945e-14 -1.70739e-14 -1.35145e-14 -1.02251e-14 -7.5212e-15 -5.57732e-15 -3.22766e-15 -6.35652e-16 1.29988e-15 2.33952e-15 2.44851e-15 2.34093e-15 2.10401e-15 9.87755e-16 1.35475e-15 1.68142e-15 1.3218e-15 5.52277e-16 -3.97423e-16
-1.25591e-13 -1.25587e-13 -1.25583e-13 -1.25579e-13 -1.25575e-13 -1.25571e-13 -1.22354e-13 -1.19433e-13 -1.16448e-13 -1.13352e-13 -1.10474e-13 -1.07983e-13 -1.06022e-13 -1.04341e-13 -1.03149e-13 -1.02393e-13 -1.00827e-13 -9.93447e-14 -9.79907e-14 -9.68623e-14 -9.58134e-14 -9.44163e-14 -9.24347e-14 -9.03039e-14 -8.79109e-14 -8.50321e-14 -8.30793e-14 -8.07559e-14 -7.82375e-14 -7.53768e-14 -7.2168e-14 -7.07897e-14 -6.95513e-14 -6.82703e-14 -6.69144e-14 -6.58274e-14 -6.56259e-14 -6.56247e-14 -6.57235e-14 -6.59981e-14 -6.64126e-14 -6.54156e-14 -6.36977e-14 -6.20794e-14 -6.0636e-14 -5.81637e-14 -5.48851e-14 -5.19154e-14 -4.899e-14 -4.61423e-14 -4.36224e-14 -4.26674e-14 -4.18371e-14 -4.12093e-14 -4.09367e-14 -4.06391e-14 -4.06795e-14 -4.00074e-14 -3.94088e-14 -3.8939e-14 -3.75176e-14 -3.59685e-14 -3.41622e-14 -3.19755e-14 -2.91214e-14 -2.62223e-14 -2.3313e-14 -2.03921e-14 -1.72395e-14 -1.36802e-14 -1.03908e-14 -7.68686e-15 -5.74298e-15 -3.56388e-15 -9.71869e-16 9.63666e-16 2.00331e-15 2.11229e-15 2.09574e-15 1.85882e-15 7.42565e-16 1.10956e-15 1.43623e-15 1.36508e-15 5.9556e-16 -3.5414e-16
-1.25659e-13 -1.25655e-13 -1.25651e-13 -1.25646e-13 -1.25642e-13 -1.25638e-13 -1.22421e-13 -1.195e-13 -1.16562e-13 -1.13466e-13 -1.10587e-13 -1.08096e-13 -1.06136e-13 -1.04252e-13 -1.0306e-13 -1.02304e-13 -1.00738e-13 -9.9256e-14 -9.78089e-14 -9.66805e-14 -9.56316e-14 -9.42345e-14 -9.22529e-14 -9.02303e-14 -8.78373e-14 -8.49586e-14 -8.30058e-14 -8.06824e-14 -7.83054e-14 -7.54446e-14 -7.22358e-14 -7.08576e-14 -6.96192e-14 -6.83691e-14 -6.70132e-14 -6.59262e-14 -6.57247e-14 -6.57235e-14 -6.57497e-14 -6.60243e-14 -6.64388e-14 -6.54418e-14 -6.37239e-14 -6.20334e-14 -6.059e-14 -5.81177e-14 -5.48391e-14 -5.18694e-14 -4.8912e-14 -4.60642e-14 -4.35444e-14 -4.25893e-14 -4.17591e-14 -4.09845e-14 -4.07119e-14 -4.04143e-14 -4.04547e-14 -3.97826e-14 -3.91307e-14 -3.86609e-14 -3.72395e-14 -3.56904e-14 -3.38841e-14 -3.19732e-14 -2.91191e-14 -2.622e-14 -2.33107e-14 -2.03898e-14 -1.74052e-14 -1.38459e-14 -1.05564e-14 -7.85252e-15 -5.90864e-15 -3.9001e-15 -1.30809e-15 6.27449e-16 1.66709e-15 1.77607e-15 1.85055e-15 1.61363e-15 4.97374e-16 8.64365e-16 1.19104e-15 1.40836e-15 6.38842e-16 -3.10857e-16
-1.25726e-13 -1.25722e-13 -1.25718e-13 -1.25714e-13 -1.2571e-13 -1.25706e-13 -1.22489e-13 -1.19568e-13 -1.16647e-13 -1.13579e-13 -1.10701e-13 -1.08209e-13 -1.06249e-13 -1.04289e-13 -1.02971e-13 -1.02216e-13 -1.0065e-13 -9.91674e-14 -9.7685e-14 -9.64987e-14 -9.54498e-14 -9.40527e-14 -9.20711e-14 -9.00896e-14 -8.77638e-14 -8.4885e-14 -8.29323e-14 -8.06089e-14 -7.82855e-14 -7.55125e-14 -7.23037e-14 -7.09255e-14 -6.96871e-14 -6.84487e-14 -6.7112e-14 -6.6025e-14 -6.58235e-14 -6.58223e-14 -6.5821e-14 -6.60505e-14 -6.6465e-14 -6.5468e-14 -6.37501e-14 -6.20322e-14 -6.05439e-14 -5.80717e-14 -5.4793e-14 -5.18234e-14 -4.88538e-14 -4.59861e-14 -4.34663e-14 -4.25112e-14 -4.1681e-14 -4.08508e-14 -4.04871e-14 -4.01895e-14 -4.02299e-14 -3.95578e-14 -3.88857e-14 -3.83829e-14 -3.69615e-14 -3.54124e-14 -3.3606e-14 -3.17996e-14 -2.91167e-14 -2.62176e-14 -2.33083e-14 -2.03874e-14 -1.74665e-14 -1.40115e-14 -1.07221e-14 -8.01817e-15 -6.07429e-15 -4.13041e-15 -1.6443e-15 2.91232e-16 1.33087e-15 1.43985e-15 1.54884e-15 1.36844e-15 2.52184e-16 6.19175e-16 9.45853e-16 1.27253e-15 6.82125e-16 -2.67574e-16
-1.25794e-13 -1.2579e-13 -1.25785e-13 -1.25781e-13 -1.25777e-13 -1.25773e-13 -1.22556e-13 -1.19635e-13 -1.16714e-13 -1.13693e-13 -1.10814e-13 -1.08323e-13 -1.06363e-13 -1.04403e-13 -1.02883e-13 -1.02127e-13 -1.00561e-13 -9.90787e-14 -9.75963e-14 -9.63169e-14 -9.5268e-14 -9.38709e-14 -9.18893e-14 -8.99078e-14 -8.76903e-14 -8.48115e-14 -8.28588e-14 -8.05353e-14 -7.82119e-14 -7.55804e-14 -7.23716e-14 -7.09934e-14 -6.9755e-14 -6.85165e-14 -6.72108e-14 -6.61238e-14 -6.59223e-14 -6.59211e-14 -6.59198e-14 -6.60767e-14 -6.64912e-14 -6.54942e-14 -6.37763e-14 -6.20584e-14 -6.04979e-14 -5.80257e-14 -5.4747e-14 -5.17774e-14 -4.88078e-14 -4.5908e-14 -4.33882e-14 -4.24331e-14 -4.16029e-14 -4.07727e-14 -4.02623e-14 -3.99647e-14 -4.00051e-14 -3.9333e-14 -3.86609e-14 -3.81048e-14 -3.66834e-14 -3.51343e-14 -3.33279e-14 -3.15216e-14 -2.91144e-14 -2.62153e-14 -2.3306e-14 -2.03851e-14 -1.74642e-14 -1.41772e-14 -1.08878e-14 -8.18383e-15 -6.23995e-15 -4.29607e-15 -1.98052e-15 -4.49853e-17 9.94654e-16 1.10364e-15 1.21262e-15 1.12325e-15 6.99404e-18 3.73985e-16 7.00663e-16 1.02734e-15 7.25408e-16 -2.24291e-16
-1.25861e-13 -1.25857e-13 -1.25853e-13 -1.25849e-13 -1.25845e-13 -1.25841e-13 -1.22624e-13 -1.19702e-13 -1.16781e-13 -1.13806e-13 -1.10928e-13 -1.08436e-13 -1.06476e-13 -1.04516e-13 -1.02794e-13 -1.02038e-13 -1.00473e-13 -9.89901e-14 -9.75077e-14 -9.61351e-14 -9.50862e-14 -9.36891e-14 -9.17075e-14 -8.9726e-14 -8.76167e-14 -8.4738e-14 -8.27852e-14 -8.04618e-14 -7.81384e-14 -7.56483e-14 -7.24395e-14 -7.10612e-14 -6.98228e-14 -6.85844e-14 -6.73096e-14 -6.62226e-14 -6.60211e-14 -6.60199e-14 -6.60186e-14 -6.61029e-14 -6.65174e-14 -6.55204e-14 -6.38025e-14 -6.20846e-14 -6.04519e-14 -5.79797e-14 -5.4701e-14 -5.17314e-14 -4.87618e-14 -4.58299e-14 -4.33101e-14 -4.2355e-14 -4.15248e-14 -4.06946e-14 -4.00375e-14 -3.97399e-14 -3.97803e-14 -3.91082e-14 -3.8436e-14 -3.78267e-14 -3.64053e-14 -3.48562e-14 -3.30499e-14 -3.12435e-14 -2.9112e-14 -2.62129e-14 -2.33036e-14 -2.03827e-14 -1.74618e-14 -1.43428e-14 -1.10534e-14 -8.34949e-15 -6.40561e-15 -4.46173e-15 -2.31674e-15 -3.81202e-16 6.58437e-16 7.67421e-16 8.76404e-16 8.78058e-16 -2.38196e-16 1.28795e-16 4.55473e-16 7.82151e-16 7.68691e-16 -1.81008e-16
-1.25929e-13 -1.25925e-13 -1.2592e-13 -1.25916e-13 -1.25912e-13 -1.25908e-13 -1.22691e-13 -1.1977e-13 -1.16849e-13 -1.1392e-13 -1.11041e-13 -1.0855e-13 -1.0659e-13 -1.04629e-13 -1.02705e-13 -1.0195e-13 -1.00384e-13 -9.89014e-14 -9.7419e-14 -9.59533e-14 -9.49044e-14 -9.35073e-14 -9.15257e-14 -8.95442e-14 -8.75432e-14 -8.46644e-14 -8.27117e-14 -8.03883e-14 -7.80649e-14 -7.57161e-14 -7.25073e-14 -7.11291e-14 -6.98907e-14 -6.86523e-14 -6.74084e-14 -6.63214e-14 -6.61199e-14 -6.61187e-14 -6.61174e-14 -6.61291e-14 -6.65436e-14 -6.55466e-14 -6.38287e-14 -6.21108e-14 -6.04059e-14 -5.79337e-14 -5.4655e-14 -5.16854e-14 -4.87157e-14 -4.57519e-14 -4.32321e-14 -4.2277e-14 -4.14468e-14 -4.06166e-14 -3.98126e-14 -3.9515e-14 -3.95555e-14 -3.88833e-14 -3.82112e-14 -3.75486e-14 -3.61272e-14 -3.45781e-14 -3.27718e-14 -3.09654e-14 -2.91097e-14 -2.62106e-14 -2.33012e-14 -2.03804e-14 -1.74595e-14 -1.45085e-14 -1.12191e-14 -8.51515e-15 -6.57126e-15 -4.62738e-15 -2.65295e-15 -7.17419e-16 3.2222e-16 4.31204e-16 5.40187e-16 6.32868e-16 -4.83386e-16 -1.16396e-16 2.10283e-16 5.36961e-16 8.11974e-16 -1.37725e-16
-1.25996e-13 -1.25992e-13 -1.25988e-13 -1.25984e-13 -1.2598e-13 -1.25975e-13 -1.22758e-13 -1.19837e-13 -1.16916e-13 -1.13995e-13 -1.11155e-13 -1.08663e-13 -1.06703e-13 -1.04743e-13 -1.02783e-13 -1.01861e-13 -1.00295e-13 -9.88128e-14 -9.73304e-14 -9.58479e-14 -9.47225e-14 -9.33255e-14 -9.13439e-14 -8.93624e-14 -8.73808e-14 -8.45909e-14 -8.26382e-14 -8.03148e-14 -7.79914e-14 -7.56679e-14 -7.25752e-14 -7.1197e-14 -6.99586e-14 -6.87202e-14 -6.74818e-14 -6.64202e-14 -6.62187e-14 -6.62175e-14 -6.62162e-14 -6.62149e-14 -6.65698e-14 -6.55728e-14 -6.38549e-14 -6.2137e-14 -6.04192e-14 -5.78877e-14 -5.4609e-14 -5.16394e-14 -4.86697e-14 -4.57001e-14 -4.3154e-14 -4.21989e-14 -4.13687e-14 -4.05385e-14 -3.97083e-14 -3.92902e-14 -3.93306e-14 -3.86585e-14 -3.79864e-14 -3.73143e-14 -3.58491e-14 -3.43001e-14 -3.24937e-14 -3.06873e-14 -2.8881e-14 -2.62082e-14 -2.32989e-14 -2.0378e-14 -1.74571e-14 -1.45362e-14 -1.13847e-14 -8.6808e-15 -6.73692e-15 -4.79304e-15 -2.84916e-15 -1.05364e-15 -1.3997e-17 9.49866e-17 2.0397e-16 3.12954e-16 -7.28576e-16 -3.61586e-16 -3.49074e-17 2.91771e-16 6.18449e-16 -9.44426e-17
-1.26064e-13 -1.26059e-13 -1.26055e-13 -1.26051e-13 -1.26047e-13 -1.26043e-13 -1.22826e-13 -1.19905e-13 -1.16984e-13 -1.14063e-13 -1.11268e-13 -1.08776e-13 -1.06816e-13 -1.04856e-13 -1.02896e-13 -1.01772e-13 -1.00207e-13 -9.87241e-14 -9.72417e-14 -9.57593e-14 -9.45407e-14 -9.31437e-14 -9.11621e-14 -8.91805e-14 -8.7199e-14 -8.45174e-14 -8.25646e-14 -8.02412e-14 -7.79178e-14 -7.55944e-14 -7.26431e-14 -7.12649e-14 -7.00265e-14 -6.87881e-14 -6.75496e-14 -6.6519e-14 -6.63175e-14 -6.63162e-14 -6.6315e-14 -6.63137e-14 -6.65959e-14 -6.5599e-14 -6.38811e-14 -6.21632e-14 -6.04454e-14 -5.78416e-14 -5.4563e-14 -5.15933e-14 -4.86237e-14 -4.56541e-14 -4.30759e-14 -4.21208e-14 -4.12906e-14 -4.04604e-14 -3.96302e-14 -3.90654e-14 -3.91058e-14 -3.84337e-14 -3.77616e-14 -3.70895e-14 -3.55711e-14 -3.4022e-14 -3.22156e-14 -3.04093e-14 -2.86029e-14 -2.62058e-14 -2.32965e-14 -2.03756e-14 -1.74548e-14 -1.45339e-14 -1.15504e-14 -8.84646e-15 -6.90258e-15 -4.9587e-15 -3.01482e-15 -1.38985e-15 -3.50214e-16 -2.4123e-16 -1.32247e-16 -2.32633e-17 -9.73767e-16 -6.06776e-16 -2.80098e-16 4.65807e-17 3.73259e-16 -5.11597e-17