# vtk DataFile Version 2.0
track0
ASCII
DATASET POLYDATA
POINTS 1720 double
-1.001 -0.05 0.0011
-1.0008 -0.05 0.0011
-1.0006 -0.05 0.0011
-1.0004 -0.05 0.0011
-1.0002 -0.05 0.0011
-1 -0.05 0.0011
-0.8 -0.05 0.0011
-0.6 -0.05 0.0011
-0.4 -0.05 0.0011
-0.2 -0.05 0.0011
0 -0.05 0.0011
0.2 -0.05 0.0011
0.4 -0.05 0.0011
0.6 -0.05 0.0011
0.8 -0.05 0.0011
1 -0.05 0.0011
1.2 -0.05 0.0011
1.4 -0.05 0.0011
1.6 -0.05 0.0011
1.8 -0.05 0.0011
2 -0.05 0.0011
2.2 -0.05 0.0011
2.4 -0.05 0.0011
2.6 -0.05 0.0011
2.8 -0.05 0.0011
3 -0.05 0.0011
3.2 -0.05 0.0011
3.4 -0.05 0.0011
3.6 -0.05 0.0011
3.8 -0.05 0.0011
4 -0.05 0.0011
4.2 -0.05 0.0011
4.4 -0.05 0.0011
4.6 -0.05 0.0011
4.8 -0.05 0.0011
5 -0.05 0.0011
5.2 -0.05 0.0011
5.4 -0.05 0.0011
5.6 -0.05 0.0011
5.8 -0.05 0.0011
6 -0.05 0.0011
6.2 -0.05 0.0011
6.4 -0.05 0.0011
6.6 -0.05 0.0011
6.8 -0.05 0.0011
7 -0.05 0.0011
7.2 -0.05 0.0011
7.4 -0.05 0.0011
7.6 -0.05 0.0011
7.8 -0.05 0.0011
8 -0.05 0.0011
8.2 -0.05 0.0011
8.4 -0.05 0.0011
8.6 -0.05 0.0011
8.8 -0.05 0.0011
9 -0.05 0.0011
9.2 -0.05 0.0011
9.4 -0.05 0.0011
9.6 -0.05 0.0011
9.8 -0.05 0.0011
10 -0.05 0.0011
10.2 -0.05 0.0011
10.4 -0.05 0.0011
10.6 -0.05 0.0011
10.8 -0.05 0.0011
11 -0.05 0.0011
11.2 -0.05 0.0011
11.4 -0.05 0.0011
11.6 -0.05 0.0011
11.8 -0.05 0.0011
12 -0.05 0.0011
12.2 -0.05 0.0011
12.4 -0.05 0.0011
12.6 -0.05 0.0011
12.8 -0.05 0.0011
13 -0.05 0.0011
13.2 -0.05 0.0011
13.4 -0.05 0.0011
13.6 -0.05 0.0011
13.8 -0.05 0.0011
14 -0.05 0.0011
14.2 -0.05 0.0011
14.4 -0.05 0.0011
14.6 -0.05 0.0011
14.8 -0.05 0.0011
15 -0.05 0.0011
-1.001 -0.05 0.0537316
-1.0008 -0.05 0.0537316
-1.0006 -0.05 0.0537316
-1.0004 -0.05 0.0537316
-1.0002 -0.05 0.0537316
-1 -0.05 0.0537316
-0.8 -0.05 0.0537316
-0.6 -0.05 0.0537316
-0.4 -0.05 0.0537316
-0.2 -0.05 0.0537316
0 -0.05 0.0537316
0.2 -0.05 0.0537316
0.4 -0.05 0.0537316
0.6 -0.05 0.0537316
0.8 -0.05 0.0537316
1 -0.05 0.0537316
1.2 -0.05 0.0537316
1.4 -0.05 0.0537316
1.6 -0.05 0.0537316
1.8 -0.05 0.0537316
2 -0.05 0.0537316
2.2 -0.05 0.0537316
2.4 -0.05 0.0537316
2.6 -0.05 0.0537316
2.8 -0.05 0.0537316
3 -0.05 0.0537316
3.2 -0.05 0.0537316
3.4 -0.05 0.0537316
3.6 -0.05 0.0537316
3.8 -0.05 0.0537316
4 -0.05 0.0537316
4.2 -0.05 0.0537316
4.4 -0.05 0.0537316
4.6 -0.05 0.0537316
4.8 -0.05 0.0537316
5 -0.05 0.0537316
5.2 -0.05 0.0537316
5.4 -0.05 0.0537316
5.6 -0.05 0.0537316
5.8 -0.05 0.0537316
6 -0.05 0.0537316
6.2 -0.05 0.0537316
6.4 -0.05 0.0537316
6.6 -0.05 0.0537316
6.8 -0.05 0.0537316
7 -0.05 0.0537316
7.2 -0.05 0.0537316
7.4 -0.05 0.0537316
7.6 -0.05 0.0537316
7.8 -0.05 0.0537316
8 -0.05 0.0537316
8.2 -0.05 0.0537316
8.4 -0.05 0.0537316
8.6 -0.05 0.0537316
8.8 -0.05 0.0537316
9 -0.05 0.0537316
9.2 -0.05 0.0537316
9.4 -0.05 0.0537316
9.6 -0.05 0.0537316
9.8 -0.05 0.0537316
10 -0.05 0.0537316
10.2 -0.05 0.0537316
10.4 -0.05 0.0537316
10.6 -0.05 0.0537316
10.8 -0.05 0.0537316
11 -0.05 0.0537316
11.2 -0.05 0.0537316
11.4 -0.05 0.0537316
11.6 -0.05 0.0537316
11.8 -0.05 0.0537316
12 -0.05 0.0537316
12.2 -0.05 0.0537316
12.4 -0.05 0.0537316
12.6 -0.05 0.0537316
12.8 -0.05 0.0537316
13 -0.05 0.0537316
13.2 -0.05 0.0537316
13.4 -0.05 0.0537316
13.6 -0.05 0.0537316
13.8 -0.05 0.0537316
14 -0.05 0.0537316
14.2 -0.05 0.0537316
14.4 -0.05 0.0537316
14.6 -0.05 0.0537316
14.8 -0.05 0.0537316
15 -0.05 0.0537316
-1.001 -0.05 0.106363
-1.0008 -0.05 0.106363
-1.0006 -0.05 0.106363
-1.0004 -0.05 0.106363
-1.0002 -0.05 0.106363
-1 -0.05 0.106363
-0.8 -0.05 0.106363
-0.6 -0.05 0.106363
-0.4 -0.05 0.106363
-0.2 -0.05 0.106363
0 -0.05 0.106363
0.2 -0.05 0.106363
0.4 -0.05 0.106363
0.6 -0.05 0.106363
0.8 -0.05 0.106363
1 -0.05 0.106363
1.2 -0.05 0.106363
1.4 -0.05 0.106363
1.6 -0.05 0.106363
1.8 -0.05 0.106363
2 -0.05 0.106363
2.2 -0.05 0.106363
2.4 -0.05 0.106363
2.6 -0.05 0.106363
2.8 -0.05 0.106363
3 -0.05 0.106363
3.2 -0.05 0.106363
3.4 -0.05 0.106363
3.6 -0.05 0.106363
3.8 -0.05 0.106363
4 -0.05 0.106363
4.2 -0.05 0.106363
4.4 -0.05 0.106363
4.6 -0.05 0.106363
4.8 -0.05 0.106363
5 -0.05 0.106363
5.2 -0.05 0.106363
5.4 -0.05 0.106363
5.6 -0.05 0.106363
5.8 -0.05 0.106363
6 -0.05 0.106363
6.2 -0.05 0.106363
6.4 -0.05 0.106363
6.6 -0.05 0.106363
6.8 -0.05 0.106363
7 -0.05 0.106363
7.2 -0.05 0.106363
7.4 -0.05 0.106363
7.6 -0.05 0.106363
7.8 -0.05 0.106363
8 -0.05 0.106363
8.2 -0.05 0.106363
8.4 -0.05 0.106363
8.6 -0.05 0.106363
8.8 -0.05 0.106363
9 -0.05 0.106363
9.2 -0.05 0.106363
9.4 -0.05 0.106363
9.6 -0.05 0.106363
9.8 -0.05 0.106363
10 -0.05 0.106363
10.2 -0.05 0.106363
10.4 -0.05 0.106363
10.6 -0.05 0.106363
10.8 -0.05 0.106363
11 -0.05 0.106363
11.2 -0.05 0.106363
11.4 -0.05 0.106363
11.6 -0.05 0.106363
11.8 -0.05 0.106363
12 -0.05 0.106363
12.2 -0.05 0.106363
12.4 -0.05 0.106363
12.6 -0.05 0.106363
12.8 -0.05 0.106363
13 -0.05 0.106363
13.2 -0.05 0.106363
13.4 -0.05 0.106363
13.6 -0.05 0.106363
13.8 -0.05 0.106363
14 -0.05 0.106363
14.2 -0.05 0.106363
14.4 -0.05 0.106363
14.6 -0.05 0.106363
14.8 -0.05 0.106363
15 -0.05 0.106363
-1.001 -0.05 0.158995
-1.0008 -0.05 0.158995
-1.0006 -0.05 0.158995
-1.0004 -0.05 0.158995
-1.0002 -0.05 0.158995
-1 -0.05 0.158995
-0.8 -0.05 0.158995
-0.6 -0.05 0.158995
-0.4 -0.05 0.158995
-0.2 -0.05 0.158995
0 -0.05 0.158995
0.2 -0.05 0.158995
0.4 -0.05 0.158995
0.6 -0.05 0.158995
0.8 -0.05 0.158995
1 -0.05 0.158995
1.2 -0.05 0.158995
1.4 -0.05 0.158995
1.6 -0.05 0.158995
1.8 -0.05 0.158995
2 -0.05 0.158995
2.2 -0.05 0.158995
2.4 -0.05 0.158995
2.6 -0.05 0.158995
2.8 -0.05 0.158995
3 -0.05 0.158995
3.2 -0.05 0.158995
3.4 -0.05 0.158995
3.6 -0.05 0.158995
3.8 -0.05 0.158995
4 -0.05 0.158995
4.2 -0.05 0.158995
4.4 -0.05 0.158995
4.6 -0.05 0.158995
4.8 -0.05 0.158995
5 -0.05 0.158995
5.2 -0.05 0.158995
5.4 -0.05 0.158995
5.6 -0.05 0.158995
5.8 -0.05 0.158995
6 -0.05 0.158995
6.2 -0.05 0.158995
6.4 -0.05 0.158995
6.6 -0.05 0.158995
6.8 -0.05 0.158995
7 -0.05 0.158995
7.2 -0.05 0.158995
7.4 -0.05 0.158995
7.6 -0.05 0.158995
7.8 -0.05 0.158995
8 -0.05 0.158995
8.2 -0.05 0.158995
8.4 -0.05 0.158995
8.6 -0.05 0.158995
8.8 -0.05 0.158995
9 -0.05 0.158995
9.2 -0.05 0.158995
9.4 -0.05 0.158995
9.6 -0.05 0.158995
9.8 -0.05 0.158995
10 -0.05 0.158995
10.2 -0.05 0.158995
10.4 -0.05 0.158995
10.6 -0.05 0.158995
10.8 -0.05 0.158995
11 -0.05 0.158995
11.2 -0.05 0.158995
11.4 -0.05 0.158995
11.6 -0.05 0.158995
11.8 -0.05 0.158995
12 -0.05 0.158995
12.2 -0.05 0.158995
12.4 -0.05 0.158995
12.6 -0.05 0.158995
12.8 -0.05 0.158995
13 -0.05 0.158995
13.2 -0.05 0.158995
13.4 -0.05 0.158995
13.6 -0.05 0.158995
13.8 -0.05 0.158995
14 -0.05 0.158995
14.2 -0.05 0.158995
14.4 -0.05 0.158995
14.6 -0.05 0.158995
14.8 -0.05 0.158995
15 -0.05 0.158995
-1.001 -0.05 0.211626
-1.0008 -0.05 0.211626
-1.0006 -0.05 0.211626
-1.0004 -0.05 0.211626
-1.0002 -0.05 0.211626
-1 -0.05 0.211626
-0.8 -0.05 0.211626
-0.6 -0.05 0.211626
-0.4 -0.05 0.211626
-0.2 -0.05 0.211626
0 -0.05 0.211626
0.2 -0.05 0.211626
0.4 -0.05 0.211626
0.6 -0.05 0.211626
0.8 -0.05 0.211626
1 -0.05 0.211626
1.2 -0.05 0.211626
1.4 -0.05 0.211626
1.6 -0.05 0.211626
1.8 -0.05 0.211626
2 -0.05 0.211626
2.2 -0.05 0.211626
2.4 -0.05 0.211626
2.6 -0.05 0.211626
2.8 -0.05 0.211626
3 -0.05 0.211626
3.2 -0.05 0.211626
3.4 -0.05 0.211626
3.6 -0.05 0.211626
3.8 -0.05 0.211626
4 -0.05 0.211626
4.2 -0.05 0.211626
4.4 -0.05 0.211626
4.6 -0.05 0.211626
4.8 -0.05 0.211626
5 -0.05 0.211626
5.2 -0.05 0.211626
5.4 -0.05 0.211626
5.6 -0.05 0.211626
5.8 -0.05 0.211626
6 -0.05 0.211626
6.2 -0.05 0.211626
6.4 -0.05 0.211626
6.6 -0.05 0.211626
6.8 -0.05 0.211626
7 -0.05 0.211626
7.2 -0.05 0.211626
7.4 -0.05 0.211626
7.6 -0.05 0.211626
7.8 -0.05 0.211626
8 -0.05 0.211626
8.2 -0.05 0.211626
8.4 -0.05 0.211626
8.6 -0.05 0.211626
8.8 -0.05 0.211626
9 -0.05 0.211626
9.2 -0.05 0.211626
9.4 -0.05 0.211626
9.6 -0.05 0.211626
9.8 -0.05 0.211626
10 -0.05 0.211626
10.2 -0.05 0.211626
10.4 -0.05 0.211626
10.6 -0.05 0.211626
10.8 -0.05 0.211626
11 -0.05 0.211626
11.2 -0.05 0.211626
11.4 -0.05 0.211626
11.6 -0.05 0.211626
11.8 -0.05 0.211626
12 -0.05 0.211626
12.2 -0.05 0.211626
12.4 -0.05 0.211626
12.6 -0.05 0.211626
12.8 -0.05 0.211626
13 -0.05 0.211626
13.2 -0.05 0.211626
13.4 -0.05 0.211626
13.6 -0.05 0.211626
13.8 -0.05 0.211626
14 -0.05 0.211626
14.2 -0.05 0.211626
14.4 -0.05 0.211626
14.6 -0.05 0.211626
14.8 -0.05 0.211626
15 -0.05 0.211626
-1.001 -0.05 0.264258
-1.0008 -0.05 0.264258
-1.0006 -0.05 0.264258
-1.0004 -0.05 0.264258
-1.0002 -0.05 0.264258
-1 -0.05 0.264258
-0.8 -0.05 0.264258
-0.6 -0.05 0.264258
-0.4 -0.05 0.264258
-0.2 -0.05 0.264258
0 -0.05 0.264258
0.2 -0.05 0.264258
0.4 -0.05 0.264258
0.6 -0.05 0.264258
0.8 -0.05 0.264258
1 -0.05 0.264258
1.2 -0.05 0.264258
1.4 -0.05 0.264258
1.6 -0.05 0.264258
1.8 -0.05 0.264258
2 -0.05 0.264258
2.2 -0.05 0.264258
2.4 -0.05 0.264258
2.6 -0.05 0.264258
2.8 -0.05 0.264258
3 -0.05 0.264258
3.2 -0.05 0.264258
3.4 -0.05 0.264258
3.6 -0.05 0.264258
3.8 -0.05 0.264258
4 -0.05 0.264258
4.2 -0.05 0.264258
4.4 -0.05 0.264258
4.6 -0.05 0.264258
4.8 -0.05 0.264258
5 -0.05 0.264258
5.2 -0.05 0.264258
5.4 -0.05 0.264258
5.6 -0.05 0.264258
5.8 -0.05 0.264258
6 -0.05 0.264258
6.2 -0.05 0.264258
6.4 -0.05 0.264258
6.6 -0.05 0.264258
6.8 -0.05 0.264258
7 -0.05 0.264258
7.2 -0.05 0.264258
7.4 -0.05 0.264258
7.6 -0.05 0.264258
7.8 -0.05 0.264258
8 -0.05 0.264258
8.2 -0.05 0.264258
8.4 -0.05 0.264258
8.6 -0.05 0.264258
8.8 -0.05 0.264258
9 -0.05 0.264258
9.2 -0.05 0.264258
9.4 -0.05 0.264258
9.6 -0.05 0.264258
9.8 -0.05 0.264258
10 -0.05 0.264258
10.2 -0.05 0.264258
10.4 -0.05 0.264258
10.6 -0.05 0.264258
10.8 -0.05 0.264258
11 -0.05 0.264258
11.2 -0.05 0.264258
11.4 -0.05 0.264258
11.6 -0.05 0.264258
11.8 -0.05 0.264258
12 -0.05 0.264258
12.2 -0.05 0.264258
12.4 -0.05 0.264258
12.6 -0.05 0.264258
12.8 -0.05 0.264258
13 -0.05 0.264258
13.2 -0.05 0.264258
13.4 -0.05 0.264258
13.6 -0.05 0.264258
13.8 -0.05 0.264258
14 -0.05 0.264258
14.2 -0.05 0.264258
14.4 -0.05 0.264258
14.6 -0.05 0.264258
14.8 -0.05 0.264258
15 -0.05 0.264258
-1.001 -0.05 0.316889
-1.0008 -0.05 0.316889
-1.0006 -0.05 0.316889
-1.0004 -0.05 0.316889
[...]
POINT_DATA 1720
 FIELD attributes 1
U 3 1720 float
20 	-2.18119e-18 	2.50227e-18 20 	-1.88586e-18 	2.22231e-18 20 	-1.59052e-18 	1.94235e-18 20 	-1.29519e-18 	1.66239e-18 20 	-9.99858e-19 	1.38242e-18 20 	-7.04526e-19 	1.10246e-18 20 	1.49495e-19 	2.32542e-18 20 	1.49495e-19 	2.32542e-18 20 	1.49495e-19 	2.32542e-18 20 	1.49495e-19 	2.32542e-18 20 	3.34321e-19 	1.09456e-18 20 	2.33769e-18 	3.02059e-18 20 	2.33769e-18 	3.02059e-18 20 	2.33769e-18 	3.02059e-18 20 	2.33769e-18 	3.02059e-18 20 	3.19216e-19 	4.20052e-19 20 	4.95155e-19 	-8.05465e-19 20 	4.95155e-19 	-8.05465e-19 20 	4.95155e-19 	-8.05465e-19 20 	4.95155e-19 	-8.05465e-19 20 	-9.71181e-19 	-3.51175e-19 20 	-2.26717e-18 	-1.14359e-18 20 	-2.26717e-18 	-1.14359e-18 20 	-2.26717e-18 	-1.14359e-18 20 	-2.26717e-18 	-1.14359e-18 20 	-1.62063e-18 	-6.58801e-19 20 	-2.61111e-18 	-1.8262e-18 20 	-2.61111e-18 	-1.8262e-18 20 	-2.61111e-18 	-1.8262e-18 20 	-2.61111e-18 	-1.8262e-18 20 	-1.25441e-18 	-7.31472e-19 20 	-1.17206e-18 	-2.18873e-18 20 	-1.17206e-18 	-2.18873e-18 20 	-1.17206e-18 	-2.18873e-18 20 	-1.17206e-18 	-2.18873e-18 20 	-9.36361e-19 	-2.51381e-19 20 	-3.24991e-18 	-7.11733e-19 20 	-3.24991e-18 	-7.11733e-19 20 	-3.24991e-18 	-7.11733e-19 20 	-3.24991e-18 	-7.11733e-19 20 	-8.2846e-19 	-6.19895e-20 20 	-1.88128e-18 	3.59318e-19 20 	-1.88128e-18 	3.59318e-19 20 	-1.88128e-18 	3.59318e-19 20 	-1.88128e-18 	3.59318e-19 20 	-5.14425e-19 	-9.53186e-20 20 	1.23638e-19 	1.2349e-19 20 	1.23638e-19 	1.2349e-19 20 	1.23638e-19 	1.2349e-19 20 	1.23638e-19 	1.2349e-19 20 	4.1348e-19 	-5.92649e-20 20 	2.60324e-18 	6.2543e-19 20 	2.60324e-18 	6.2543e-19 20 	2.60324e-18 	6.2543e-19 20 	2.60324e-18 	6.2543e-19 20 	6.50288e-19 	-6.21536e-19 20 	7.04102e-19 	-1.14232e-18 20 	7.04102e-19 	-1.14232e-18 20 	7.04102e-19 	-1.14232e-18 20 	7.04102e-19 	-1.14232e-18 20 	-3.33074e-19 	-7.48879e-19 20 	-7.8483e-19 	1.39635e-19 20 	-7.8483e-19 	1.39635e-19 20 	-7.8483e-19 	1.39635e-19 20 	-7.8483e-19 	1.39635e-19 20 	-1.09588e-18 	-2.32459e-19 20 	-3.12648e-18 	-3.75386e-19 20 	-3.12648e-18 	-3.75386e-19 20 	-3.12648e-18 	-3.75386e-19 20 	-3.12648e-18 	-3.75386e-19 20 	-1.48832e-18 	7.80677e-20 20 	-3.10832e-18 	-7.22105e-19 20 	-3.10832e-18 	-7.22105e-19 20 	-3.10832e-18 	-7.22105e-19 20 	-3.10832e-18 	-7.22105e-19 20 	-8.54532e-19 	6.00363e-19 20 	3.92066e-20 	1.69827e-18 20 	3.92066e-20 	1.69827e-18 20 	3.92066e-20 	1.69827e-18 20 	3.92066e-20 	1.69827e-18 20 	2.16237e-19 	7.29251e-19 20 	7.14337e-17 	4.02718e-17 20 	1.40858e-16 	7.87933e-17 20 	2.10283e-16 	1.17315e-16 20 	2.79708e-16 	1.55836e-16 20 	3.51668e-16 	1.9592e-16
20 	-3.58906e-17 	5.52516e-17 20 	-3.55952e-17 	5.49716e-17 20 	-3.52999e-17 	5.46917e-17 20 	-3.50046e-17 	5.44117e-17 20 	-3.47092e-17 	5.41317e-17 20 	-3.44139e-17 	5.38518e-17 20 	7.92935e-18 	1.09414e-16 20 	7.92935e-18 	1.09414e-16 20 	7.92935e-18 	1.09414e-16 20 	7.92935e-18 	1.09414e-16 20 	1.63306e-17 	5.34659e-17 20 	1.07342e-16 	1.38725e-16 20 	1.07342e-16 	1.38725e-16 20 	1.07342e-16 	1.38725e-16 20 	1.07342e-16 	1.38725e-16 20 	1.55927e-17 	2.05182e-17 20 	1.92125e-17 	-3.78034e-17 20 	1.92125e-17 	-3.78034e-17 20 	1.92125e-17 	-3.78034e-17 20 	1.92125e-17 	-3.78034e-17 20 	-4.74392e-17 	-1.71538e-17 20 	-1.08551e-16 	-5.42163e-17 20 	-1.08551e-16 	-5.42163e-17 20 	-1.08551e-16 	-5.42163e-17 20 	-1.08551e-16 	-5.42163e-17 20 	-7.91625e-17 	-3.21804e-17 20 	-1.22942e-16 	-8.54907e-17 20 	-1.22942e-16 	-8.54907e-17 20 	-1.22942e-16 	-8.54907e-17 20 	-1.22942e-16 	-8.54907e-17 20 	-6.12743e-17 	-3.57302e-17 20 	-5.64521e-17 	-1.0034e-16 20 	-5.64521e-17 	-1.0034e-16 20 	-5.64521e-17 	-1.0034e-16 20 	-5.64521e-17 	-1.0034e-16 20 	-4.57383e-17 	-1.22792e-17 20 	-1.50533e-16 	-3.25618e-17 20 	-1.50533e-16 	-3.25618e-17 20 	-1.50533e-16 	-3.25618e-17 20 	-1.50533e-16 	-3.25618e-17 20 	-4.04677e-17 	-3.02799e-18 20 	-8.72578e-17 	1.60093e-17 20 	-8.72578e-17 	1.60093e-17 20 	-8.72578e-17 	1.60093e-17 20 	-8.72578e-17 	1.60093e-17 20 	-2.51281e-17 	-4.65602e-18 20 	7.02257e-18 	5.41214e-18 20 	7.02257e-18 	5.41214e-18 20 	7.02257e-18 	5.41214e-18 20 	7.02257e-18 	5.41214e-18 20 	2.01972e-17 	-2.89491e-18 20 	1.20535e-16 	2.63202e-17 20 	1.20535e-16 	2.63202e-17 20 	1.20535e-16 	2.63202e-17 20 	1.20535e-16 	2.63202e-17 20 	3.17646e-17 	-3.03601e-17 20 	3.08747e-17 	-5.4464e-17 20 	3.08747e-17 	-5.4464e-17 20 	3.08747e-17 	-5.4464e-17 20 	3.08747e-17 	-5.4464e-17 20 	-1.62696e-17 	-3.65804e-17 20 	-3.93917e-17 	5.55849e-18 20 	-3.93917e-17 	5.55849e-18 20 	-3.93917e-17 	5.55849e-18 20 	-3.93917e-17 	5.55849e-18 20 	-5.35301e-17 	-1.13549e-17 20 	-1.47162e-16 	-1.67982e-17 20 	-1.47162e-16 	-1.67982e-17 20 	-1.47162e-16 	-1.67982e-17 20 	-1.47162e-16 	-1.67982e-17 20 	-7.27e-17 	3.81336e-18 20 	-1.44186e-16 	-3.07863e-17 20 	-1.44186e-16 	-3.07863e-17 20 	-1.44186e-16 	-3.07863e-17 20 	-1.44186e-16 	-3.07863e-17 20 	-4.17412e-17 	2.93258e-17 20 	2.51567e-18 	7.96678e-17 20 	2.51567e-18 	7.96678e-17 20 	2.51567e-18 	7.96678e-17 20 	2.51567e-18 	7.96678e-17 20 	1.05625e-17 	3.56216e-17 20 	1.61389e-16 	1.19013e-16 20 	2.30813e-16 	1.57534e-16 20 	3.00238e-16 	1.96056e-16 20 	3.69663e-16 	2.34577e-16 20 	3.60772e-16 	2.09046e-16
20 	-6.95999e-17 	1.08001e-16 20 	-6.93046e-17 	1.07721e-16 20 	-6.90093e-17 	1.07441e-16 20 	-6.87139e-17 	1.07161e-16 20 	-6.84186e-17 	1.06881e-16 20 	-6.81233e-17 	1.06601e-16 20 	2.39256e-17 	1.61785e-16 20 	2.39256e-17 	1.61785e-16 20 	2.39256e-17 	1.61785e-16 20 	2.39256e-17 	1.61785e-16 20 	3.23268e-17 	1.05837e-16 20 	1.22615e-16 	1.58823e-16 20 	1.22615e-16 	1.58823e-16 20 	1.22615e-16 	1.58823e-16 20 	1.22615e-16 	1.58823e-16 20 	3.08662e-17 	4.06164e-17 20 	-2.72555e-17 	-5.4606e-17 20 	-2.72555e-17 	-5.4606e-17 20 	-2.72555e-17 	-5.4606e-17 20 	-2.72555e-17 	-5.4606e-17 20 	-9.39072e-17 	-3.39564e-17 20 	-1.86093e-16 	-8.57379e-17 20 	-1.86093e-16 	-8.57379e-17 20 	-1.86093e-16 	-8.57379e-17 20 	-1.86093e-16 	-8.57379e-17 20 	-1.56704e-16 	-6.3702e-17 20 	-1.82962e-16 	-1.20489e-16 20 	-1.82962e-16 	-1.20489e-16 20 	-1.82962e-16 	-1.20489e-16 20 	-1.82962e-16 	-1.20489e-16 20 	-1.21294e-16 	-7.07288e-17 20 	-1.01254e-16 	-1.12368e-16 20 	-1.01254e-16 	-1.12368e-16 20 	-1.01254e-16 	-1.12368e-16 20 	-1.01254e-16 	-1.12368e-16 20 	-9.05403e-17 	-2.4307e-17 20 	-1.90173e-16 	-3.55278e-17 20 	-1.90173e-16 	-3.55278e-17 20 	-1.90173e-16 	-3.55278e-17 20 	-1.90173e-16 	-3.55278e-17 20 	-8.0107e-17 	-5.99399e-18 20 	-1.11871e-16 	1.14486e-17 20 	-1.11871e-16 	1.14486e-17 20 	-1.11871e-16 	1.14486e-17 20 	-1.11871e-16 	1.14486e-17 20 	-4.97417e-17 	-9.21672e-18 20 	2.68063e-17 	2.5765e-18 20 	2.68063e-17 	2.5765e-18 20 	2.68063e-17 	2.5765e-18 20 	2.68063e-17 	2.5765e-18 20 	3.9981e-17 	-5.73055e-18 20 	1.5165e-16 	-3.4184e-18 20 	1.5165e-16 	-3.4184e-18 20 	1.5165e-16 	-3.4184e-18 20 	1.5165e-16 	-3.4184e-18 20 	6.28788e-17 	-6.00987e-17 20 	1.49382e-17 	-9.02956e-17 20 	1.49382e-17 	-9.02956e-17 20 	1.49382e-17 	-9.02956e-17 20 	1.49382e-17 	-9.02956e-17 20 	-3.22062e-17 	-7.2412e-17 20 	-9.18259e-17 	-5.56393e-18 20 	-9.18259e-17 	-5.56393e-18 20 	-9.18259e-17 	-5.56393e-18 20 	-9.18259e-17 	-5.56393e-18 20 	-1.05964e-16 	-2.24773e-17 20 	-2.18374e-16 	-1.30629e-17 20 	-2.18374e-16 	-1.30629e-17 20 	-2.18374e-16 	-1.30629e-17 20 	-2.18374e-16 	-1.30629e-17 20 	-1.43912e-16 	7.54866e-18 20 	-1.85073e-16 	-2.06085e-18 20 	-1.85073e-16 	-2.06085e-18 20 	-1.85073e-16 	-2.06085e-18 20 	-1.85073e-16 	-2.06085e-18 20 	-8.26279e-17 	5.80513e-17 20 	1.28619e-17 	1.1456e-16 20 	1.28619e-17 	1.1456e-16 20 	1.28619e-17 	1.1456e-16 20 	1.28619e-17 	1.1456e-16 20 	2.09088e-17 	7.0514e-17 20 	1.70493e-16 	1.32139e-16 20 	2.39918e-16 	1.7066e-16 20 	3.09342e-16 	2.09182e-16 20 	3.78767e-16 	2.47703e-16 20 	3.69877e-16 	2.22172e-16
20 	-1.03309e-16 	1.6075e-16 20 	-1.03014e-16 	1.6047e-16 20 	-1.02719e-16 	1.6019e-16 20 	-1.02423e-16 	1.5991e-16 20 	-1.02128e-16 	1.5963e-16 20 	-1.01833e-16 	1.5935e-16 20 	3.99218e-17 	2.14157e-16 20 	3.99218e-17 	2.14157e-16 20 	3.99218e-17 	2.14157e-16 20 	3.99218e-17 	2.14157e-16 20 	4.8323e-17 	1.58209e-16 20 	1.37889e-16 	1.78921e-16 20 	1.37889e-16 	1.78921e-16 20 	1.37889e-16 	1.78921e-16 20 	1.37889e-16 	1.78921e-16 20 	4.61397e-17 	6.07146e-17 20 	-7.37235e-17 	-7.14086e-17 20 	-7.37235e-17 	-7.14086e-17 20 	-7.37235e-17 	-7.14086e-17 20 	-7.37235e-17 	-7.14086e-17 20 	-1.40375e-16 	-5.0759e-17 20 	-2.63635e-16 	-1.1726e-16 20 	-2.63635e-16 	-1.1726e-16 20 	-2.63635e-16 	-1.1726e-16 20 	-2.63635e-16 	-1.1726e-16 20 	-2.34246e-16 	-9.52236e-17 20 	-2.42982e-16 	-1.55488e-16 20 	-2.42982e-16 	-1.55488e-16 20 	-2.42982e-16 	-1.55488e-16 20 	-2.42982e-16 	-1.55488e-16 20 	-1.81314e-16 	-1.05728e-16 20 	-1.46056e-16 	-1.24396e-16 20 	-1.46056e-16 	-1.24396e-16 20 	-1.46056e-16 	-1.24396e-16 20 	-1.46056e-16 	-1.24396e-16 20 	-1.35342e-16 	-3.63348e-17 20 	-2.29812e-16 	-3.84938e-17 20 	-2.29812e-16 	-3.84938e-17 20 	-2.29812e-16 	-3.84938e-17 20 	-2.29812e-16 	-3.84938e-17 20 	-1.19746e-16 	-8.96e-18 20 	-1.36485e-16 	6.8879e-18 20 	-1.36485e-16 	6.8879e-18 20 	-1.36485e-16 	6.8879e-18 20 	-1.36485e-16 	6.8879e-18 20 	-7.43554e-17 	-1.37774e-17 20 	4.65901e-17 	-2.59138e-19 20 	4.65901e-17 	-2.59138e-19 20 	4.65901e-17 	-2.59138e-19 20 	4.65901e-17 	-2.59138e-19 20 	5.97647e-17 	-8.56619e-18 20 	1.82764e-16 	-3.3157e-17 20 	1.82764e-16 	-3.3157e-17 20 	1.82764e-16 	-3.3157e-17 20 	1.82764e-16 	-3.3157e-17 20 	9.39931e-17 	-8.98373e-17 20 	-9.98332e-19 	-1.26127e-16 20 	-9.98332e-19 	-1.26127e-16 20 	-9.98332e-19 	-1.26127e-16 20 	-9.98332e-19 	-1.26127e-16 20 	-4.81427e-17 	-1.08244e-16 20 	-1.4426e-16 	-1.66864e-17 20 	-1.4426e-16 	-1.66864e-17 20 	-1.4426e-16 	-1.66864e-17 20 	-1.4426e-16 	-1.66864e-17 20 	-1.58399e-16 	-3.35997e-17 20 	-2.89585e-16 	-9.32758e-18 20 	-2.89585e-16 	-9.32758e-18 20 	-2.89585e-16 	-9.32758e-18 20 	-2.89585e-16 	-9.32758e-18 20 	-2.15123e-16 	1.1284e-17 20 	-2.25959e-16 	2.66646e-17 20 	-2.25959e-16 	2.66646e-17 20 	-2.25959e-16 	2.66646e-17 20 	-2.25959e-16 	2.66646e-17 20 	-1.23515e-16 	8.67768e-17 20 	2.32082e-17 	1.49453e-16 20 	2.32082e-17 	1.49453e-16 20 	2.32082e-17 	1.49453e-16 20 	2.32082e-17 	1.49453e-16 20 	3.12551e-17 	1.05406e-16 20 	1.79597e-16 	1.45264e-16 20 	2.49022e-16 	1.83786e-16 20 	3.18446e-16 	2.22307e-16 20 	3.87871e-16 	2.60829e-16 20 	3.78981e-16 	2.35298e-16
20 	-1.37019e-16 	2.135e-16 20 	-1.36723e-16 	2.1322e-16 20 	-1.36428e-16 	2.1294e-16 20 	-1.36133e-16 	2.1266e-16 20 	-1.35837e-16 	2.1238e-16 20 	-1.35542e-16 	2.121e-16 20 	4.49381e-17 	2.66611e-16 20 	5.59181e-17 	2.66528e-16 20 	5.59181e-17 	2.66528e-16 20 	5.59181e-17 	2.66528e-16 20 	6.43193e-17 	2.1058e-16 20 	1.53322e-16 	2.06148e-16 20 	1.53162e-16 	1.99019e-16 20 	1.53162e-16 	1.99019e-16 20 	1.53162e-16 	1.99019e-16 20 	6.14132e-17 	8.08127e-17 20 	-1.06553e-16 	-8.00598e-17 20 	-1.20192e-16 	-8.82112e-17 20 	-1.20192e-16 	-8.82112e-17 20 	-1.20192e-16 	-8.82112e-17 20 	-1.86843e-16 	-6.75616e-17 20 	-3.34313e-16 	-1.4553e-16 20 	-3.41177e-16 	-1.48781e-16 20 	-3.41177e-16 	-1.48781e-16 20 	-3.41177e-16 	-1.48781e-16 20 	-3.11788e-16 	-1.26745e-16 20 	-3.06872e-16 	-1.89719e-16 20 	-3.03002e-16 	-1.90487e-16 20 	-3.03002e-16 	-1.90487e-16 20 	-3.03002e-16 	-1.90487e-16 20 	-2.41334e-16 	-1.40726e-16 20 	-1.9422e-16 	-1.41498e-16 20 	-1.90858e-16 	-1.36424e-16 20 	-1.90858e-16 	-1.36424e-16 20 	-1.90858e-16 	-1.36424e-16 20 	-1.80144e-16 	-4.83626e-17 20 	-2.70592e-16 	-4.34615e-17 20 	-2.69451e-16 	-4.14598e-17 20 	-2.69451e-16 	-4.14598e-17 20 	-2.69451e-16 	-4.14598e-17 20 	-1.59385e-16 	-1.1926e-17 20 	-1.64418e-16 	2.67947e-18 20 	-1.61099e-16 	2.3272e-18 20 	-1.61099e-16 	2.3272e-18 20 	-1.61099e-16 	2.3272e-18 20 	-9.8969e-17 	-1.83381e-17 20 	5.65664e-17 	-3.47585e-18 20 	6.63738e-17 	-3.09478e-18 20 	6.63738e-17 	-3.09478e-18 20 	6.63738e-17 	-3.09478e-18 20 	7.95485e-17 	-1.14018e-17 20 	2.11375e-16 	-5.69527e-17 20 	2.13878e-16 	-6.28956e-17 20 	2.13878e-16 	-6.28956e-17 20 	2.13878e-16 	-6.28956e-17 20 	1.25107e-16 	-1.19576e-16 20 	-6.54135e-18 	-1.60613e-16 20 	-1.69349e-17 	-1.61959e-16 20 	-1.69349e-17 	-1.61959e-16 20 	-1.69349e-17 	-1.61959e-16 20 	-6.40792e-17 	-1.44075e-16 20 	-1.88632e-16 	-3.3267e-17 20 	-1.96694e-16 	-2.78088e-17 20 	-1.96694e-16 	-2.78088e-17 20 	-1.96694e-16 	-2.78088e-17 20 	-2.10833e-16 	-4.47221e-17 20 	-3.56649e-16 	-8.87435e-18 20 	-3.60797e-16 	-5.59228e-18 20 	-3.60797e-16 	-5.59228e-18 20 	-3.60797e-16 	-5.59228e-18 20 	-2.86335e-16 	1.50193e-17 20 	-2.73545e-16 	4.98698e-17 20 	-2.66846e-16 	5.53901e-17 20 	-2.66846e-16 	5.53901e-17 20 	-2.66846e-16 	5.53901e-17 20 	-1.64401e-16 	1.15502e-16 20 	2.22371e-17 	1.82983e-16 20 	3.35545e-17 	1.84345e-16 20 	3.35545e-17 	1.84345e-16 20 	3.35545e-17 	1.84345e-16 20 	4.16013e-17 	1.40299e-16 20 	1.88976e-16 	1.63198e-16 20 	2.58126e-16 	1.96912e-16 20 	3.27551e-16 	2.35433e-16 20 	3.96975e-16 	2.73955e-16 20 	3.88085e-16 	2.48424e-16
20 	-1.70728e-16 	2.66249e-16 20 	-1.70433e-16 	2.65969e-16 20 	-1.70137e-16 	2.65689e-16 20 	-1.69842e-16 	2.65409e-16 20 	-1.69547e-16 	2.65129e-16 20 	-1.69251e-16 	2.64849e-16 20 	1.12287e-17 	3.19361e-16 20 	7.19143e-17 	3.18899e-16 20 	7.19143e-17 	3.18899e-16 20 	7.19143e-17 	3.18899e-16 20 	8.03155e-17 	2.62951e-16 20 	1.69318e-16 	2.5852e-16 20 	1.68436e-16 	2.19117e-16 20 	1.68436e-16 	2.19117e-16 20 	1.68436e-16 	2.19117e-16 20 	7.66867e-17 	1.00911e-16 20 	-9.12794e-17 	-5.99616e-17 20 	-1.6666e-16 	-1.05014e-16 20 	-1.6666e-16 	-1.05014e-16 20 	-1.6666e-16 	-1.05014e-16 20 	-2.33311e-16 	-8.43642e-17 20 	-3.80781e-16 	-1.62332e-16 20 	-4.18719e-16 	-1.80303e-16 20 	-4.18719e-16 	-1.80303e-16 20 	-4.18719e-16 	-1.80303e-16 20 	-3.8933e-16 	-1.58267e-16 20 	-3.84414e-16 	-2.2124e-16 20 	-3.63021e-16 	-2.25485e-16 20 	-3.63021e-16 	-2.25485e-16 20 	-3.63021e-16 	-2.25485e-16 20 	-3.01354e-16 	-1.75725e-16 20 	-2.54239e-16 	-1.76497e-16 20 	-2.3566e-16 	-1.48452e-16 20 	-2.3566e-16 	-1.48452e-16 20 	-2.3566e-16 	-1.48452e-16 20 	-2.24946e-16 	-6.03904e-17 20 	-3.15394e-16 	-5.54893e-17 20 	-3.0909e-16 	-4.44258e-17 20 	-3.0909e-16 	-4.44258e-17 20 	-3.0909e-16 	-4.44258e-17 20 	-1.99025e-16 	-1.4892e-17 20 	-2.04057e-16 	-2.8653e-19 20 	-1.85712e-16 	-2.2335e-18 20 	-1.85712e-16 	-2.2335e-18 20 	-1.85712e-16 	-2.2335e-18 20 	-1.23583e-16 	-2.28988e-17 20 	3.19528e-17 	-8.03655e-18 20 	8.61576e-17 	-5.93042e-18 20 	8.61576e-17 	-5.93042e-18 20 	8.61576e-17 	-5.93042e-18 20 	9.93322e-17 	-1.42375e-17 20 	2.31159e-16 	-5.97883e-17 20 	2.44992e-16 	-9.26341e-17 20 	2.44992e-16 	-9.26341e-17 20 	2.44992e-16 	-9.26341e-17 20 	1.56222e-16 	-1.49314e-16 20 	2.45729e-17 	-1.90351e-16 20 	-3.28714e-17 	-1.9779e-16 20 	-3.28714e-17 	-1.9779e-16 20 	-3.28714e-17 	-1.9779e-16 20 	-8.00158e-17 	-1.79907e-16 20 	-2.04569e-16 	-6.90986e-17 20 	-2.49129e-16 	-3.89312e-17 20 	-2.49129e-16 	-3.89312e-17 20 	-2.49129e-16 	-3.89312e-17 20 	-2.63267e-16 	-5.58446e-17 20 	-4.09083e-16 	-1.99968e-17 20 	-4.32009e-16 	-1.85698e-18 20 	-4.32009e-16 	-1.85698e-18 20 	-4.32009e-16 	-1.85698e-18 20 	-3.57547e-16 	1.87546e-17 20 	-3.44756e-16 	5.36051e-17 20 	-3.07733e-16 	8.41156e-17 20 	-3.07733e-16 	8.41156e-17 20 	-3.07733e-16 	8.41156e-17 20 	-2.05288e-16 	1.44228e-16 20 	-1.86495e-17 	2.11708e-16 20 	4.39008e-17 	2.19237e-16 20 	4.39008e-17 	2.19237e-16 20 	4.39008e-17 	2.19237e-16 20 	5.19476e-17 	1.75191e-16 20 	1.99322e-16 	1.98091e-16 20 	2.6723e-16 	2.10038e-16 20 	3.36655e-16 	2.48559e-16 20 	4.06079e-16 	2.87081e-16 20 	3.97189e-16 	2.61549e-16
20 	-2.04437e-16 	3.18998e-16 20 	-2.04142e-16 	3.18718e-16 20 	-2.03847e-16 	3.18438e-16 20 	-2.03551e-16 	3.18158e-16 20 	-2.03256e-16 	3.17878e-16 20 	-2.02961e-16 	3.17598e-16 20 	-2.24806e-17 	3.7211e-16 20 	8.79105e-17 	3.71271e-16 20 	8.79105e-17 	3.71271e-16 20 	8.79105e-17 	3.71271e-16 20 	9.63117e-17 	3.15323e-16 20 	1.85314e-16 	3.10891e-16 20 	1.83709e-16 	2.39215e-16 20 	1.83709e-16 	2.39215e-16 20 	1.83709e-16 	2.39215e-16 20 	9.19602e-17 	1.21009e-16 20 	-7.60058e-17 	-3.98635e-17 20 	-2.13128e-16 	-1.21816e-16 20 	-2.13128e-16 	-1.21816e-16 20 	-2.13128e-16 	-1.21816e-16 20 	-2.79779e-16 	-1.01167e-16 20 	-4.27249e-16 	-1.79135e-16 20 	-4.96261e-16 	-2.11824e-16 20 	-4.96261e-16 	-2.11824e-16 20 	-4.96261e-16 	-2.11824e-16 20 	-4.66872e-16 	-1.89788e-16 20 	-4.61956e-16 	-2.52762e-16 20 	-4.23041e-16 	-2.60484e-16 20 	-4.23041e-16 	-2.60484e-16 20 	-4.23041e-16 	-2.60484e-16 20 	-3.61373e-16 	-2.10724e-16 20 	-3.14259e-16 	-2.11495e-16 20 	-2.80462e-16 	-1.60479e-16 20 	-2.80462e-16 	-1.60479e-16 20 	-2.80462e-16 	-1.60479e-16 20 	-2.69748e-16 	-7.24182e-17 20 	-3.60196e-16 	-6.75171e-17 20 	-3.4873e-16 	-4.73918e-17 20 	-3.4873e-16 	-4.73918e-17 20 	-3.4873e-16 	-4.73918e-17 20 	-2.38664e-16 	-1.7858e-17 20 	-2.43696e-16 	-3.25253e-18 20 	-2.10326e-16 	-6.7942e-18 20 	-2.10326e-16 	-6.7942e-18 20 	-2.10326e-16 	-6.7942e-18 20 	-1.48196e-16 	-2.74595e-17 20 	7.33912e-18 	-1.25972e-17 20 	1.05941e-16 	-8.76606e-18 20 	1.05941e-16 	-8.76606e-18 20 	1.05941e-16 	-8.76606e-18 20 	1.19116e-16 	-1.70731e-17 20 	2.50943e-16 	-6.2624e-17 20 	2.76107e-16 	-1.22373e-16 20 	2.76107e-16 	-1.22373e-16 20 	2.76107e-16 	-1.22373e-16 20 	1.87336e-16 	-1.79053e-16 20 	5.56872e-17 	-2.2009e-16 20 	-4.8808e-17 	-2.33622e-16 20 	-4.8808e-17 	-2.33622e-16 20 	-4.8808e-17 	-2.33622e-16 20 	-9.59523e-17 	-2.15738e-16 20 	-2.20505e-16 	-1.0493e-16 20 	-3.01563e-16 	-5.00536e-17 20 	-3.01563e-16 	-5.00536e-17 20 	-3.01563e-16 	-5.00536e-17 20 	-3.15701e-16 	-6.6967e-17 20 	-4.61517e-16 	-3.11192e-17 20 	-5.0322e-16 	1.87831e-18 20 	-5.0322e-16 	1.87831e-18 20 	-5.0322e-16 	1.87831e-18 20 	-4.28759e-16 	2.24899e-17 20 	-4.15968e-16 	5.73404e-17 20 	-3.48619e-16 	1.12841e-16 20 	-3.48619e-16 	1.12841e-16 20 	-3.48619e-16 	1.12841e-16 20 	-2.46175e-16 	1.72953e-16 20 	-5.95362e-17 	2.40434e-16 20 	5.42471e-17 	2.5413e-16 20 	5.42471e-17 	2.5413e-16 20 	5.42471e-17 	2.5413e-16 20 	6.22939e-17 	2.10084e-16 20 	2.09668e-16 	2.32983e-16 20 	2.76334e-16 	2.23163e-16 20 	3.45759e-16 	2.61685e-16 20 	4.15184e-16 	3.00206e-16 20 	4.06293e-16 	2.74675e-16