# vtk DataFile Version 2.0
track0
ASCII
DATASET POLYDATA
POINTS 1720 double
-1.001 -0.05 0.0011
-1.0008 -0.05 0.0011
-1.0006 -0.05 0.0011
-1.0004 -0.05 0.0011
-1.0002 -0.05 0.0011
-1 -0.05 0.0011
-0.8 -0.05 0.0011
-0.6 -0.05 0.0011
-0.4 -0.05 0.0011
-0.2 -0.05 0.0011
0 -0.05 0.0011
0.2 -0.05 0.0011
0.4 -0.05 0.0011
0.6 -0.05 0.0011
0.8 -0.05 0.0011
1 -0.05 0.0011
1.2 -0.05 0.0011
1.4 -0.05 0.0011
1.6 -0.05 0.0011
1.8 -0.05 0.0011
2 -0.05 0.0011
2.2 -0.05 0.0011
2.4 -0.05 0.0011
2.6 -0.05 0.0011
2.8 -0.05 0.0011
3 -0.05 0.0011
3.2 -0.05 0.0011
3.4 -0.05 0.0011
3.6 -0.05 0.0011
3.8 -0.05 0.0011
4 -0.05 0.0011
4.2 -0.05 0.0011
4.4 -0.05 0.0011
4.6 -0.05 0.0011
4.8 -0.05 0.0011
5 -0.05 0.0011
5.2 -0.05 0.0011
5.4 -0.05 0.0011
5.6 -0.05 0.0011
5.8 -0.05 0.0011
6 -0.05 0.0011
6.2 -0.05 0.0011
6.4 -0.05 0.0011
6.6 -0.05 0.0011
6.8 -0.05 0.0011
7 -0.05 0.0011
7.2 -0.05 0.0011
7.4 -0.05 0.0011
7.6 -0.05 0.0011
7.8 -0.05 0.0011
8 -0.05 0.0011
8.2 -0.05 0.0011
8.4 -0.05 0.0011
8.6 -0.05 0.0011
8.8 -0.05 0.0011
9 -0.05 0.0011
9.2 -0.05 0.0011
9.4 -0.05 0.0011
9.6 -0.05 0.0011
9.8 -0.05 0.0011
10 -0.05 0.0011
10.2 -0.05 0.0011
10.4 -0.05 0.0011
10.6 -0.05 0.0011
10.8 -0.05 0.0011
11 -0.05 0.0011
11.2 -0.05 0.0011
11.4 -0.05 0.0011
11.6 -0.05 0.0011
11.8 -0.05 0.0011
12 -0.05 0.0011
12.2 -0.05 0.0011
12.4 -0.05 0.0011
12.6 -0.05 0.0011
12.8 -0.05 0.0011
13 -0.05 0.0011
13.2 -0.05 0.0011
13.4 -0.05 0.0011
13.6 -0.05 0.0011
13.8 -0.05 0.0011
14 -0.05 0.0011
14.2 -0.05 0.0011
14.4 -0.05 0.0011
14.6 -0.05 0.0011
14.8 -0.05 0.0011
15 -0.05 0.0011
-1.001 -0.05 0.0537316
-1.0008 -0.05 0.0537316
-1.0006 -0.05 0.0537316
-1.0004 -0.05 0.0537316
-1.0002 -0.05 0.0537316
-1 -0.05 0.0537316
-0.8 -0.05 0.0537316
-0.6 -0.05 0.0537316
-0.4 -0.05 0.0537316
-0.2 -0.05 0.0537316
0 -0.05 0.0537316
0.2 -0.05 0.0537316
0.4 -0.05 0.0537316
0.6 -0.05 0.0537316
0.8 -0.05 0.0537316
1 -0.05 0.0537316
1.2 -0.05 0.0537316
1.4 -0.05 0.0537316
1.6 -0.05 0.0537316
1.8 -0.05 0.0537316
2 -0.05 0.0537316
2.2 -0.05 0.0537316
2.4 -0.05 0.0537316
2.6 -0.05 0.0537316
2.8 -0.05 0.0537316
3 -0.05 0.0537316
3.2 -0.05 0.0537316
3.4 -0.05 0.0537316
3.6 -0.05 0.0537316
3.8 -0.05 0.0537316
4 -0.05 0.0537316
4.2 -0.05 0.0537316
4.4 -0.05 0.0537316
4.6 -0.05 0.0537316
4.8 -0.05 0.0537316
5 -0.05 0.0537316
5.2 -0.05 0.0537316
5.4 -0.05 0.0537316
5.6 -0.05 0.0537316
5.8 -0.05 0.0537316
6 -0.05 0.0537316
6.2 -0.05 0.0537316
6.4 -0.05 0.0537316
6.6 -0.05 0.0537316
6.8 -0.05 0.0537316
7 -0.05 0.0537316
7.2 -0.05 0.0537316
7.4 -0.05 0.0537316
7.6 -0.05 0.0537316
7.8 -0.05 0.0537316
8 -0.05 0.0537316
8.2 -0.05 0.0537316
8.4 -0.05 0.0537316
8.6 -0.05 0.0537316
8.8 -0.05 0.0537316
9 -0.05 0.0537316
9.2 -0.05 0.0537316
9.4 -0.05 0.0537316
9.6 -0.05 0.0537316
9.8 -0.05 0.0537316
10 -0.05 0.0537316
10.2 -0.05 0.0537316
10.4 -0.05 0.0537316
10.6 -0.05 0.0537316
10.8 -0.05 0.0537316
11 -0.05 0.0537316
11.2 -0.05 0.0537316
11.4 -0.05 0.0537316
11.6 -0.05 0.0537316
11.8 -0.05 0.0537316
12 -0.05 0.0537316
12.2 -0.05 0.0537316
12.4 -0.05 0.0537316
12.6 -0.05 0.0537316
12.8 -0.05 0.0537316
13 -0.05 0.0537316
13.2 -0.05 0.0537316
13.4 -0.05 0.0537316
13.6 -0.05 0.0537316
13.8 -0.05 0.0537316
14 -0.05 0.0537316
14.2 -0.05 0.0537316
14.4 -0.05 0.0537316
14.6 -0.05 0.0537316
14.8 -0.05 0.0537316
15 -0.05 0.0537316
-1.001 -0.05 0.106363
-1.0008 -0.05 0.106363
-1.0006 -0.05 0.106363
-1.0004 -0.05 0.106363
-1.0002 -0.05 0.106363
-1 -0.05 0.106363
-0.8 -0.05 0.106363
-0.6 -0.05 0.106363
-0.4 -0.05 0.106363
-0.2 -0.05 0.106363
0 -0.05 0.106363
0.2 -0.05 0.106363
0.4 -0.05 0.106363
0.6 -0.05 0.106363
0.8 -0.05 0.106363
1 -0.05 0.106363
1.2 -0.05 0.106363
1.4 -0.05 0.106363
1.6 -0.05 0.106363
1.8 -0.05 0.106363
2 -0.05 0.106363
2.2 -0.05 0.106363
2.4 -0.05 0.106363
2.6 -0.05 0.106363
2.8 -0.05 0.106363
3 -0.05 0.106363
3.2 -0.05 0.106363
3.4 -0.05 0.106363
3.6 -0.05 0.106363
3.8 -0.05 0.106363
4 -0.05 0.106363
4.2 -0.05 0.106363
4.4 -0.05 0.106363
4.6 -0.05 0.106363
4.8 -0.05 0.106363
5 -0.05 0.106363
5.2 -0.05 0.106363
5.4 -0.05 0.106363
5.6 -0.05 0.106363
5.8 -0.05 0.106363
6 -0.05 0.106363
6.2 -0.05 0.106363
6.4 -0.05 0.106363
6.6 -0.05 0.106363
6.8 -0.05 0.106363
7 -0.05 0.106363
7.2 -0.05 0.106363
7.4 -0.05 0.106363
7.6 -0.05 0.106363
7.8 -0.05 0.106363
8 -0.05 0.106363
8.2 -0.05 0.106363
8.4 -0.05 0.106363
8.6 -0.05 0.106363
8.8 -0.05 0.106363
9 -0.05 0.106363
9.2 -0.05 0.106363
9.4 -0.05 0.106363
9.6 -0.05 0.106363
9.8 -0.05 0.106363
10 -0.05 0.106363
10.2 -0.05 0.106363
10.4 -0.05 0.106363
10.6 -0.05 0.106363
10.8 -0.05 0.106363
11 -0.05 0.106363
11.2 -0.05 0.106363
11.4 -0.05 0.106363
11.6 -0.05 0.106363
11.8 -0.05 0.106363
12 -0.05 0.106363
12.2 -0.05 0.106363
12.4 -0.05 0.106363
12.6 -0.05 0.106363
12.8 -0.05 0.106363
13 -0.05 0.106363
13.2 -0.05 0.106363
13.4 -0.05 0.106363
13.6 -0.05 0.106363
13.8 -0.05 0.106363
14 -0.05 0.106363
14.2 -0.05 0.106363
14.4 -0.05 0.106363
14.6 -0.05 0.106363
14.8 -0.05 0.106363
15 -0.05 0.106363
-1.001 -0.05 0.158995
-1.0008 -0.05 0.158995
-1.0006 -0.05 0.158995
-1.0004 -0.05 0.158995
-1.0002 -0.05 0.158995
-1 -0.05 0.158995
-0.8 -0.05 0.158995
-0.6 -0.05 0.158995
-0.4 -0.05 0.158995
-0.2 -0.05 0.158995
0 -0.05 0.158995
0.2 -0.05 0.158995
0.4 -0.05 0.158995
0.6 -0.05 0.158995
0.8 -0.05 0.158995
1 -0.05 0.158995
1.2 -0.05 0.158995
1.4 -0.05 0.158995
1.6 -0.05 0.158995
1.8 -0.05 0.158995
2 -0.05 0.158995
2.2 -0.05 0.158995
2.4 -0.05 0.158995
2.6 -0.05 0.158995
2.8 -0.05 0.158995
3 -0.05 0.158995
3.2 -0.05 0.158995
3.4 -0.05 0.158995
3.6 -0.05 0.158995
3.8 -0.05 0.158995
4 -0.05 0.158995
4.2 -0.05 0.158995
4.4 -0.05 0.158995
4.6 -0.05 0.158995
4.8 -0.05 0.158995
5 -0.05 0.158995
5.2 -0.05 0.158995
5.4 -0.05 0.158995
5.6 -0.05 0.158995
5.8 -0.05 0.158995
6 -0.05 0.158995
6.2 -0.05 0.158995
6.4 -0.05 0.158995
6.6 -0.05 0.158995
6.8 -0.05 0.158995
7 -0.05 0.158995
7.2 -0.05 0.158995
7.4 -0.05 0.158995
7.6 -0.05 0.158995
7.8 -0.05 0.158995
8 -0.05 0.158995
8.2 -0.05 0.158995
8.4 -0.05 0.158995
8.6 -0.05 0.158995
8.8 -0.05 0.158995
9 -0.05 0.158995
9.2 -0.05 0.158995
9.4 -0.05 0.158995
9.6 -0.05 0.158995
9.8 -0.05 0.158995
10 -0.05 0.158995
10.2 -0.05 0.158995
10.4 -0.05 0.158995
10.6 -0.05 0.158995
10.8 -0.05 0.158995
11 -0.05 0.158995
11.2 -0.05 0.158995
11.4 -0.05 0.158995
11.6 -0.05 0.158995
11.8 -0.05 0.158995
12 -0.05 0.158995
12.2 -0.05 0.158995
12.4 -0.05 0.158995
12.6 -0.05 0.158995
12.8 -0.05 0.158995
13 -0.05 0.158995
13.2 -0.05 0.158995
13.4 -0.05 0.158995
13.6 -0.05 0.158995
13.8 -0.05 0.158995
14 -0.05 0.158995
14.2 -0.05 0.158995
14.4 -0.05 0.158995
14.6 -0.05 0.158995
14.8 -0.05 0.158995
15 -0.05 0.158995
-1.001 -0.05 0.211626
-1.0008 -0.05 0.211626
-1.0006 -0.05 0.211626
-1.0004 -0.05 0.211626
-1.0002 -0.05 0.211626
-1 -0.05 0.211626
-0.8 -0.05 0.211626
-0.6 -0.05 0.211626
-0.4 -0.05 0.211626
-0.2 -0.05 0.211626
0 -0.05 0.211626
0.2 -0.05 0.211626
0.4 -0.05 0.211626
0.6 -0.05 0.211626
0.8 -0.05 0.211626
1 -0.05 0.211626
1.2 -0.05 0.211626
1.4 -0.05 0.211626
1.6 -0.05 0.211626
1.8 -0.05 0.211626
2 -0.05 0.211626
2.2 -0.05 0.211626
2.4 -0.05 0.211626
2.6 -0.05 0.211626
2.8 -0.05 0.211626
3 -0.05 0.211626
3.2 -0.05 0.211626
3.4 -0.05 0.211626
3.6 -0.05 0.211626
3.8 -0.05 0.211626
4 -0.05 0.211626
4.2 -0.05 0.211626
4.4 -0.05 0.211626
4.6 -0.05 0.211626
4.8 -0.05 0.211626
5 -0.05 0.211626
5.2 -0.05 0.211626
5.4 -0.05 0.211626
5.6 -0.05 0.211626
5.8 -0.05 0.211626
6 -0.05 0.211626
6.2 -0.05 0.211626
6.4 -0.05 0.211626
6.6 -0.05 0.211626
6.8 -0.05 0.211626
7 -0.05 0.211626
7.2 -0.05 0.211626
7.4 -0.05 0.211626
7.6 -0.05 0.211626
7.8 -0.05 0.211626
8 -0.05 0.211626
8.2 -0.05 0.211626
8.4 -0.05 0.211626
8.6 -0.05 0.211626
8.8 -0.05 0.211626
9 -0.05 0.211626
9.2 -0.05 0.211626
9.4 -0.05 0.211626
9.6 -0.05 0.211626
9.8 -0.05 0.211626
10 -0.05 0.211626
10.2 -0.05 0.211626
10.4 -0.05 0.211626
10.6 -0.05 0.211626
10.8 -0.05 0.211626
11 -0.05 0.211626
11.2 -0.05 0.211626
11.4 -0.05 0.211626
11.6 -0.05 0.211626
11.8 -0.05 0.211626
12 -0.05 0.211626
12.2 -0.05 0.211626
12.4 -0.05 0.211626
12.6 -0.05 0.211626
12.8 -0.05 0.211626
13 -0.05 0.211626
13.2 -0.05 0.211626
13.4 -0.05 0.211626
13.6 -0.05 0.211626
13.8 -0.05 0.211626
14 -0.05 0.211626
14.2 -0.05 0.211626
14.4 -0.05 0.211626
14.6 -0.05 0.211626
14.8 -0.05 0.211626
15 -0.05 0.211626
-1.001 -0.05 0.264258
-1.0008 -0.05 0.264258
-1.0006 -0.05 0.264258
-1.0004 -0.05 0.264258
-1.0002 -0.05 0.264258
-1 -0.05 0.264258
-0.8 -0.05 0.264258
-0.6 -0.05 0.264258
-0.4 -0.05 0.264258
-0.2 -0.05 0.264258
0 -0.05 0.264258
0.2 -0.05 0.264258
0.4 -0.05 0.264258
0.6 -0.05 0.264258
0.8 -0.05 0.264258
1 -0.05 0.264258
1.2 -0.05 0.264258
1.4 -0.05 0.264258
1.6 -0.05 0.264258
1.8 -0.05 0.264258
2 -0.05 0.264258
2.2 -0.05 0.264258
2.4 -0.05 0.264258
2.6 -0.05 0.264258
2.8 -0.05 0.264258
3 -0.05 0.264258
3.2 -0.05 0.264258
3.4 -0.05 0.264258
3.6 -0.05 0.264258
3.8 -0.05 0.264258
4 -0.05 0.264258
4.2 -0.05 0.264258
4.4 -0.05 0.264258
4.6 -0.05 0.264258
4.8 -0.05 0.264258
5 -0.05 0.264258
5.2 -0.05 0.264258
5.4 -0.05 0.264258
5.6 -0.05 0.264258
5.8 -0.05 0.264258
6 -0.05 0.264258
6.2 -0.05 0.264258
6.4 -0.05 0.264258
6.6 -0.05 0.264258
6.8 -0.05 0.264258
7 -0.05 0.264258
7.2 -0.05 0.264258
7.4 -0.05 0.264258
7.6 -0.05 0.264258
7.8 -0.05 0.264258
8 -0.05 0.264258
8.2 -0.05 0.264258
8.4 -0.05 0.264258
8.6 -0.05 0.264258
8.8 -0.05 0.264258
9 -0.05 0.264258
9.2 -0.05 0.264258
9.4 -0.05 0.264258
9.6 -0.05 0.264258
9.8 -0.05 0.264258
10 -0.05 0.264258
10.2 -0.05 0.264258
10.4 -0.05 0.264258
10.6 -0.05 0.264258
10.8 -0.05 0.264258
11 -0.05 0.264258
11.2 -0.05 0.264258
11.4 -0.05 0.264258
11.6 -0.05 0.264258
11.8 -0.05 0.264258
12 -0.05 0.264258
12.2 -0.05 0.264258
12.4 -0.05 0.264258
12.6 -0.05 0.264258
12.8 -0.05 0.264258
13 -0.05 0.264258
13.2 -0.05 0.264258
13.4 -0.05 0.264258
13.6 -0.05 0.264258
13.8 -0.05 0.264258
14 -0.05 0.264258
14.2 -0.05 0.264258
14.4 -0.05 0.264258
14.6 -0.05 0.264258
14.8 -0.05 0.264258
15 -0.05 0.264258
-1.001 -0.05 0.316889
-1.0008 -0.05 0.316889
-1.0006 -0.05 0.316889
-1.0004 -0.05 0.316889
[...]
POINT_DATA 1720
 FIELD attributes 2
p 1 1720 float
-1.01634e-13 -1.01632e-13 -1.0163e-13 -1.01628e-13 -1.01627e-13 -1.01625e-13 -9.87227e-14 -9.58167e-14 -9.29107e-14 -9.00048e-14 -8.71061e-14 -8.58966e-14 -8.46935e-14 -8.34905e-14 -8.22874e-14 -8.10594e-14 -8.08583e-14 -8.06556e-14 -8.0453e-14 -8.02504e-14 -8.00444e-14 -7.86467e-14 -7.72367e-14 -7.58267e-14 -7.44167e-14 -7.30522e-14 -7.04326e-14 -6.78008e-14 -6.5169e-14 -6.25372e-14 -5.98571e-14 -5.7792e-14 -5.57279e-14 -5.36638e-14 -5.15997e-14 -4.96113e-14 -4.89135e-14 -4.82204e-14 -4.75273e-14 -4.68342e-14 -4.60453e-14 -4.43635e-14 -4.26699e-14 -4.09762e-14 -3.92826e-14 -3.74234e-14 -3.53317e-14 -3.32576e-14 -3.11834e-14 -2.91092e-14 -2.72567e-14 -2.74792e-14 -2.77206e-14 -2.79619e-14 -2.82033e-14 -2.84247e-14 -2.90175e-14 -2.9612e-14 -3.02066e-14 -3.08012e-14 -3.1196e-14 -3.0236e-14 -2.92644e-14 -2.82928e-14 -2.73212e-14 -2.6534e-14 -2.43726e-14 -2.22067e-14 -2.00408e-14 -1.78749e-14 -1.57851e-14 -1.32528e-14 -1.07306e-14 -8.20847e-15 -5.68631e-15 -2.81113e-15 -2.16353e-15 -1.54115e-15 -9.18765e-16 -2.96383e-16 2.69417e-16 -3.98955e-17 -3.55056e-16 -6.70217e-16 -9.85378e-16 -1.55093e-15
-1.01567e-13 -1.01565e-13 -1.01564e-13 -1.01562e-13 -1.0156e-13 -1.01558e-13 -9.88169e-14 -9.59109e-14 -9.30049e-14 -9.00989e-14 -8.69236e-14 -8.54229e-14 -8.42198e-14 -8.30167e-14 -8.18137e-14 -8.08259e-14 -8.06858e-14 -8.04832e-14 -8.02806e-14 -8.0078e-14 -7.97269e-14 -7.88815e-14 -7.74715e-14 -7.60615e-14 -7.46515e-14 -7.28525e-14 -7.07883e-14 -6.81565e-14 -6.55247e-14 -6.28929e-14 -5.98574e-14 -5.77512e-14 -5.56871e-14 -5.3623e-14 -5.15589e-14 -4.97107e-14 -4.88004e-14 -4.81073e-14 -4.74142e-14 -4.67211e-14 -4.60735e-14 -4.49182e-14 -4.32246e-14 -4.15309e-14 -3.98373e-14 -3.74809e-14 -3.46172e-14 -3.2543e-14 -3.04689e-14 -2.83947e-14 -2.74185e-14 -2.67937e-14 -2.7035e-14 -2.72764e-14 -2.75177e-14 -2.84554e-14 -2.89576e-14 -2.95521e-14 -3.01467e-14 -3.07413e-14 -3.10955e-14 -3.06597e-14 -2.96881e-14 -2.87165e-14 -2.7745e-14 -2.66019e-14 -2.46403e-14 -2.24744e-14 -2.03085e-14 -1.81426e-14 -1.58903e-14 -1.29102e-14 -1.0388e-14 -7.86587e-15 -5.34371e-15 -2.98986e-15 -1.21845e-15 -5.96068e-16 2.63147e-17 6.48697e-16 1.31788e-16 9.79975e-17 -2.17163e-16 -5.32324e-16 -8.47485e-16 -1.46906e-15
-1.01501e-13 -1.01499e-13 -1.01497e-13 -1.01495e-13 -1.01493e-13 -1.01492e-13 -9.86343e-14 -9.57283e-14 -9.28223e-14 -8.99163e-14 -8.6741e-14 -8.51894e-14 -8.39864e-14 -8.27833e-14 -8.15802e-14 -8.05925e-14 -8.03683e-14 -8.01656e-14 -7.9963e-14 -7.97604e-14 -7.94094e-14 -7.86817e-14 -7.72718e-14 -7.58618e-14 -7.44518e-14 -7.26528e-14 -7.07886e-14 -6.81567e-14 -6.55249e-14 -6.28931e-14 -5.98577e-14 -5.78506e-14 -5.57865e-14 -5.37224e-14 -5.16583e-14 -4.98101e-14 -4.88285e-14 -4.81354e-14 -4.74423e-14 -4.67492e-14 -4.61016e-14 -4.49756e-14 -4.3282e-14 -4.15884e-14 -3.98947e-14 -3.75384e-14 -3.4779e-14 -3.27048e-14 -3.06306e-14 -2.85565e-14 -2.75803e-14 -2.68243e-14 -2.70657e-14 -2.7307e-14 -2.75484e-14 -2.8486e-14 -2.8857e-14 -2.94516e-14 -3.00461e-14 -3.06407e-14 -3.09949e-14 -3.07276e-14 -2.9756e-14 -2.87845e-14 -2.78129e-14 -2.66699e-14 -2.47454e-14 -2.25795e-14 -2.04136e-14 -1.82477e-14 -1.59955e-14 -1.30889e-14 -1.05668e-14 -8.0446e-15 -5.52244e-15 -3.16859e-15 -1.35608e-15 -7.33697e-16 -1.11315e-16 5.11068e-16 -5.84118e-18 1.79868e-16 -1.35293e-16 -4.50453e-16 -7.65614e-16 -1.38719e-15
-1.01434e-13 -1.01432e-13 -1.0143e-13 -1.01429e-13 -1.01427e-13 -1.01425e-13 -9.84517e-14 -9.55457e-14 -9.26397e-14 -8.97337e-14 -8.65584e-14 -8.4956e-14 -8.3753e-14 -8.25499e-14 -8.13468e-14 -8.03591e-14 -8.00507e-14 -7.98481e-14 -7.96455e-14 -7.94429e-14 -7.90918e-14 -7.8482e-14 -7.7072e-14 -7.56621e-14 -7.42521e-14 -7.24531e-14 -7.07888e-14 -6.8157e-14 -6.55252e-14 -6.28934e-14 -5.98579e-14 -5.795e-14 -5.58859e-14 -5.38218e-14 -5.17577e-14 -4.99095e-14 -4.88566e-14 -4.81636e-14 -4.74705e-14 -4.67774e-14 -4.61297e-14 -4.50331e-14 -4.33395e-14 -4.16458e-14 -3.99522e-14 -3.75958e-14 -3.49407e-14 -3.28666e-14 -3.07924e-14 -2.87182e-14 -2.7742e-14 -2.6855e-14 -2.70963e-14 -2.73377e-14 -2.7579e-14 -2.85167e-14 -2.87564e-14 -2.9351e-14 -2.99456e-14 -3.05401e-14 -3.08943e-14 -3.07955e-14 -2.98239e-14 -2.88524e-14 -2.78808e-14 -2.67378e-14 -2.48506e-14 -2.26847e-14 -2.05188e-14 -1.83529e-14 -1.61006e-14 -1.32677e-14 -1.07455e-14 -8.22333e-15 -5.70117e-15 -3.34732e-15 -1.49371e-15 -8.71327e-16 -2.48944e-16 3.73439e-16 -1.4347e-16 2.61738e-16 -5.34224e-17 -3.68583e-16 -6.83744e-16 -1.30532e-15
-1.01367e-13 -1.01366e-13 -1.01364e-13 -1.01362e-13 -1.0136e-13 -1.01358e-13 -9.82947e-14 -9.53631e-14 -9.24571e-14 -8.95512e-14 -8.63758e-14 -8.47338e-14 -8.35195e-14 -8.23165e-14 -8.11134e-14 -8.01257e-14 -7.97518e-14 -7.95306e-14 -7.9328e-14 -7.91253e-14 -7.87743e-14 -7.82563e-14 -7.68723e-14 -7.54623e-14 -7.40524e-14 -7.22534e-14 -7.07449e-14 -6.81573e-14 -6.55255e-14 -6.28937e-14 -5.98582e-14 -5.80275e-14 -5.59853e-14 -5.39212e-14 -5.18571e-14 -5.00089e-14 -4.89005e-14 -4.81917e-14 -4.74986e-14 -4.68055e-14 -4.61579e-14 -4.50841e-14 -4.33969e-14 -4.17033e-14 -4.00097e-14 -3.76533e-14 -3.50795e-14 -3.30283e-14 -3.09542e-14 -2.888e-14 -2.79038e-14 -2.69146e-14 -2.7127e-14 -2.73683e-14 -2.76097e-14 -2.85474e-14 -2.86848e-14 -2.92504e-14 -2.9845e-14 -3.04396e-14 -3.07937e-14 -3.08262e-14 -2.98918e-14 -2.89203e-14 -2.79487e-14 -2.68057e-14 -2.49475e-14 -2.27898e-14 -2.06239e-14 -1.8458e-14 -1.62058e-14 -1.34301e-14 -1.09242e-14 -8.40206e-15 -5.8799e-15 -3.52605e-15 -1.64042e-15 -1.00896e-15 -3.86573e-16 2.35809e-16 -2.811e-16 2.95121e-16 2.8448e-17 -2.86713e-16 -6.01873e-16 -1.22345e-15
-1.01301e-13 -1.01299e-13 -1.01297e-13 -1.01295e-13 -1.01294e-13 -1.01292e-13 -9.82281e-14 -9.51805e-14 -9.22745e-14 -8.93686e-14 -8.61932e-14 -8.45512e-14 -8.32861e-14 -8.2083e-14 -8.088e-14 -7.98922e-14 -7.95183e-14 -7.9213e-14 -7.90104e-14 -7.88078e-14 -7.84567e-14 -7.79387e-14 -7.66726e-14 -7.52626e-14 -7.38527e-14 -7.20537e-14 -7.05452e-14 -6.81575e-14 -6.55257e-14 -6.28939e-14 -5.98585e-14 -5.80277e-14 -5.60847e-14 -5.40206e-14 -5.19565e-14 -5.01083e-14 -4.89999e-14 -4.82198e-14 -4.75267e-14 -4.68336e-14 -4.6186e-14 -4.51122e-14 -4.34544e-14 -4.17608e-14 -4.00671e-14 -3.77107e-14 -3.51369e-14 -3.31901e-14 -3.11159e-14 -2.90418e-14 -2.80655e-14 -2.70763e-14 -2.71576e-14 -2.7399e-14 -2.76403e-14 -2.8578e-14 -2.87155e-14 -2.91498e-14 -2.97444e-14 -3.0339e-14 -3.06932e-14 -3.07256e-14 -2.99597e-14 -2.89882e-14 -2.80166e-14 -2.68736e-14 -2.50154e-14 -2.2895e-14 -2.07291e-14 -1.85632e-14 -1.63109e-14 -1.35353e-14 -1.1103e-14 -8.58079e-15 -6.05863e-15 -3.70478e-15 -1.81915e-15 -1.14659e-15 -5.24203e-16 9.81799e-17 -4.18729e-16 1.57492e-16 1.10318e-16 -2.04842e-16 -5.20003e-16 -1.14158e-15
-1.01234e-13 -1.01232e-13 -1.01231e-13 -1.01229e-13 -1.01227e-13 -1.01225e-13 -9.81614e-14 -9.49979e-14 -9.20919e-14 -8.9186e-14 -8.60106e-14 -8.43686e-14 -8.30527e-14 -8.18496e-14 -8.06465e-14 -7.96588e-14 -7.92849e-14 -7.88955e-14 -7.86929e-14 -7.84903e-14 -7.81392e-14 -7.76212e-14 -7.64729e-14 -7.50629e-14 -7.36529e-14 -7.18539e-14 -7.03455e-14 -6.81578e-14 -6.5526e-14 -6.28942e-14 -5.98587e-14 -5.8028e-14 -5.61841e-14 -5.412e-14 -5.20559e-14 -5.02077e-14 -4.90993e-14 -4.82479e-14 -4.75549e-14 -4.68618e-14 -4.62141e-14 -4.51403e-14 -4.35118e-14 -4.18182e-14 -4.01246e-14 -3.77682e-14 -3.51944e-14 -3.33519e-14 -3.12777e-14 -2.92035e-14 -2.82273e-14 -2.72381e-14 -2.71883e-14 -2.74296e-14 -2.7671e-14 -2.86087e-14 -2.87461e-14 -2.90493e-14 -2.96438e-14 -3.02384e-14 -3.05926e-14 -3.06251e-14 -3.00277e-14 -2.90561e-14 -2.80845e-14 -2.69415e-14 -2.50833e-14 -2.30001e-14 -2.08342e-14 -1.86683e-14 -1.64161e-14 -1.36404e-14 -1.12817e-14 -8.75952e-15 -6.23736e-15 -3.88351e-15 -1.99788e-15 -1.28421e-15 -6.61832e-16 -3.94494e-17 -5.56358e-16 1.98625e-17 1.92189e-16 -1.22972e-16 -4.38133e-16 -1.05971e-15
-1.01167e-13 -1.01166e-13 -1.01164e-13 -1.01162e-13 -1.0116e-13 -1.01158e-13 -9.80948e-14 -9.48153e-14 -9.19094e-14 -8.90034e-14 -8.5828e-14 -8.41861e-14 -8.28193e-14 -8.16162e-14 -8.04131e-14 -7.94254e-14 -7.90515e-14 -7.85779e-14 -7.83753e-14 -7.81727e-14 -7.78217e-14 -7.73037e-14 -7.62732e-14 -7.48632e-14 -7.34532e-14 -7.16542e-14 -7.01458e-14 -6.81581e-14 -6.55263e-14 -6.28945e-14 -5.9859e-14 -5.80283e-14 -5.62835e-14 -5.42194e-14 -5.21553e-14 -5.03071e-14 -4.91987e-14 -4.82761e-14 -4.7583e-14 -4.68899e-14 -4.62422e-14 -4.51685e-14 -4.35693e-14 -4.18757e-14 -4.0182e-14 -3.78257e-14 -3.52519e-14 -3.35136e-14 -3.14395e-14 -2.93653e-14 -2.83891e-14 -2.73999e-14 -2.72189e-14 -2.74603e-14 -2.77016e-14 -2.86393e-14 -2.87768e-14 -2.89487e-14 -2.95433e-14 -3.01378e-14 -3.0492e-14 -3.05245e-14 -3.00956e-14 -2.9124e-14 -2.81524e-14 -2.70094e-14 -2.51512e-14 -2.31053e-14 -2.09394e-14 -1.87735e-14 -1.65213e-14 -1.37456e-14 -1.14604e-14 -8.93825e-15 -6.41609e-15 -4.06224e-15 -2.17661e-15 -1.42184e-15 -7.99461e-16 -1.77079e-16 -6.93988e-16 -1.17767e-16 2.74059e-16 -4.11016e-17 -3.56262e-16 -9.77835e-16
-1.01101e-13 -1.01099e-13 -1.01097e-13 -1.01095e-13 -1.01094e-13 -1.01092e-13 -9.80282e-14 -9.46815e-14 -9.17268e-14 -8.88208e-14 -8.56454e-14 -8.40035e-14 -8.26072e-14 -8.13828e-14 -8.01797e-14 -7.9192e-14 -7.88181e-14 -7.82958e-14 -7.80578e-14 -7.78552e-14 -7.75041e-14 -7.69861e-14 -7.60239e-14 -7.46635e-14 -7.32535e-14 -7.14545e-14 -6.99461e-14 -6.80742e-14 -6.55265e-14 -6.28947e-14 -5.98593e-14 -5.80286e-14 -5.63412e-14 -5.43188e-14 -5.22547e-14 -5.04065e-14 -4.92981e-14 -4.83342e-14 -4.76111e-14 -4.6918e-14 -4.62704e-14 -4.51966e-14 -4.36144e-14 -4.19331e-14 -4.02395e-14 -3.78831e-14 -3.53093e-14 -3.36315e-14 -3.16012e-14 -2.95271e-14 -2.85508e-14 -2.75616e-14 -2.73048e-14 -2.74909e-14 -2.77323e-14 -2.867e-14 -2.88075e-14 -2.89034e-14 -2.94427e-14 -3.00373e-14 -3.03914e-14 -3.04239e-14 -3.00925e-14 -2.91919e-14 -2.82203e-14 -2.70773e-14 -2.52191e-14 -2.31948e-14 -2.10446e-14 -1.88787e-14 -1.66264e-14 -1.38508e-14 -1.16082e-14 -9.11698e-15 -6.59482e-15 -4.24097e-15 -2.35534e-15 -1.57677e-15 -9.37091e-16 -3.14708e-16 -8.31617e-16 -2.55396e-16 2.63542e-16 4.07688e-17 -2.74392e-16 -8.95965e-16
-1.01034e-13 -1.01032e-13 -1.01031e-13 -1.01029e-13 -1.01027e-13 -1.01025e-13 -9.79616e-14 -9.46149e-14 -9.15442e-14 -8.86382e-14 -8.54628e-14 -8.38209e-14 -8.24246e-14 -8.11493e-14 -7.99463e-14 -7.89585e-14 -7.85846e-14 -7.80624e-14 -7.77403e-14 -7.75376e-14 -7.71866e-14 -7.66686e-14 -7.57063e-14 -7.44638e-14 -7.30538e-14 -7.12548e-14 -6.97463e-14 -6.78745e-14 -6.55268e-14 -6.2895e-14 -5.98595e-14 -5.80288e-14 -5.63414e-14 -5.44182e-14 -5.23541e-14 -5.05059e-14 -4.93975e-14 -4.84336e-14 -4.76393e-14 -4.69462e-14 -4.62985e-14 -4.52247e-14 -4.36426e-14 -4.19906e-14 -4.0297e-14 -3.79406e-14 -3.53668e-14 -3.3689e-14 -3.1763e-14 -2.96888e-14 -2.87126e-14 -2.77234e-14 -2.74665e-14 -2.75216e-14 -2.77629e-14 -2.87006e-14 -2.88381e-14 -2.8934e-14 -2.93421e-14 -2.99367e-14 -3.02909e-14 -3.03233e-14 -2.9992e-14 -2.92598e-14 -2.82882e-14 -2.71452e-14 -2.5287e-14 -2.32627e-14 -2.11497e-14 -1.89838e-14 -1.67316e-14 -1.39559e-14 -1.17133e-14 -9.29571e-15 -6.77355e-15 -4.4197e-15 -2.53407e-15 -1.7555e-15 -1.07472e-15 -4.52337e-16 -9.69246e-16 -3.93025e-16 1.25913e-16 1.22639e-16 -1.92522e-16 -8.14095e-16
-1.00968e-13 -1.00966e-13 -1.00964e-13 -1.00962e-13 -1.0096e-13 -1.00959e-13 -9.78949e-14 -9.45483e-14 -9.13616e-14 -8.84556e-14 -8.52802e-14 -8.36383e-14 -8.2242e-14 -8.09159e-14 -7.97128e-14 -7.87251e-14 -7.83512e-14 -7.7829e-14 -7.74227e-14 -7.72201e-14 -7.6869e-14 -7.6351e-14 -7.53888e-14 -7.42641e-14 -7.28541e-14 -7.10551e-14 -6.95466e-14 -6.76747e-14 -6.55271e-14 -6.28953e-14 -5.98598e-14 -5.80291e-14 -5.63417e-14 -5.45176e-14 -5.24535e-14 -5.06053e-14 -4.94969e-14 -4.8533e-14 -4.76674e-14 -4.69743e-14 -4.63266e-14 -4.52529e-14 -4.36707e-14 -4.20481e-14 -4.03544e-14 -3.7998e-14 -3.54242e-14 -3.37464e-14 -3.19248e-14 -2.98506e-14 -2.88744e-14 -2.78852e-14 -2.76283e-14 -2.75522e-14 -2.77936e-14 -2.87313e-14 -2.88688e-14 -2.89647e-14 -2.92415e-14 -2.98361e-14 -3.01903e-14 -3.02228e-14 -2.98914e-14 -2.93277e-14 -2.83561e-14 -2.72131e-14 -2.53549e-14 -2.33306e-14 -2.12549e-14 -1.9089e-14 -1.68367e-14 -1.40611e-14 -1.18185e-14 -9.47444e-15 -6.95228e-15 -4.59843e-15 -2.7128e-15 -1.93423e-15 -1.21235e-15 -5.89967e-16 -1.10688e-15 -5.30655e-16 -1.17166e-17 2.0451e-16 -1.10651e-16 -7.32224e-16
-1.00901e-13 -1.00899e-13 -1.00897e-13 -1.00896e-13 -1.00894e-13 -1.00892e-13 -9.78283e-14 -9.44817e-14 -9.1179e-14 -8.8273e-14 -8.50976e-14 -8.34557e-14 -8.20595e-14 -8.06825e-14 -7.94794e-14 -7.84917e-14 -7.81178e-14 -7.75955e-14 -7.71052e-14 -7.69026e-14 -7.65515e-14 -7.60335e-14 -7.50713e-14 -7.40644e-14 -7.26544e-14 -7.08554e-14 -6.93469e-14 -6.7475e-14 -6.55273e-14 -6.28955e-14 -5.98601e-14 -5.80294e-14 -5.6342e-14 -5.4617e-14 -5.25529e-14 -5.07047e-14 -4.95963e-14 -4.86324e-14 -4.76955e-14 -4.70024e-14 -4.63548e-14 -4.5281e-14 -4.36988e-14 -4.21055e-14 -4.04119e-14 -3.80555e-14 -3.54817e-14 -3.38039e-14 -3.20865e-14 -3.00124e-14 -2.90361e-14 -2.80469e-14 -2.77901e-14 -2.75829e-14 -2.78242e-14 -2.87619e-14 -2.88994e-14 -2.89953e-14 -2.9141e-14 -2.97355e-14 -3.00897e-14 -3.01222e-14 -2.97908e-14 -2.93956e-14 -2.8424e-14 -2.7281e-14 -2.54228e-14 -2.33985e-14 -2.136e-14 -1.91941e-14 -1.69419e-14 -1.41662e-14 -1.19236e-14 -9.65317e-15 -7.13101e-15 -4.77716e-15 -2.89153e-15 -2.11296e-15 -1.34998e-15 -7.27596e-16 -1.2445e-15 -6.68284e-16 -1.49346e-16 2.8638e-16 -2.87807e-17 -6.50354e-16
-1.00834e-13 -1.00833e-13 -1.00831e-13 -1.00829e-13 -1.00827e-13 -1.00825e-13 -9.77617e-14 -9.4415e-14 -9.10684e-14 -8.80904e-14 -8.49151e-14 -8.32731e-14 -8.18769e-14 -8.04806e-14 -7.9246e-14 -7.82583e-14 -7.78844e-14 -7.73621e-14 -7.68399e-14 -7.6585e-14 -7.6234e-14 -7.5716e-14 -7.47537e-14 -7.37915e-14 -7.24547e-14 -7.06557e-14 -6.91472e-14 -6.72753e-14 -6.54034e-14 -6.28958e-14 -5.98603e-14 -5.80296e-14 -5.63422e-14 -5.46549e-14 -5.26523e-14 -5.08041e-14 -4.96957e-14 -4.87318e-14 -4.77679e-14 -4.70306e-14 -4.63829e-14 -4.53091e-14 -4.3727e-14 -4.21448e-14 -4.04693e-14 -3.8113e-14 -3.55391e-14 -3.38613e-14 -3.21835e-14 -3.01741e-14 -2.91979e-14 -2.82087e-14 -2.79518e-14 -2.76949e-14 -2.78549e-14 -2.87926e-14 -2.89301e-14 -2.9026e-14 -2.91219e-14 -2.96349e-14 -2.99891e-14 -3.00216e-14 -2.96902e-14 -2.93589e-14 -2.84919e-14 -2.73489e-14 -2.54907e-14 -2.34664e-14 -2.14421e-14 -1.92993e-14 -1.7047e-14 -1.42714e-14 -1.20288e-14 -9.78622e-15 -7.30974e-15 -4.95589e-15 -3.07026e-15 -2.29169e-15 -1.51313e-15 -8.65225e-16 -1.38213e-15 -8.05913e-16 -2.86975e-16 2.31963e-16 5.30896e-17 -5.68484e-16
-1.00768e-13 -1.00766e-13 -1.00764e-13 -1.00762e-13 -1.00761e-13 -1.00759e-13 -9.76951e-14 -9.43484e-14 -9.10018e-14 -8.79078e-14 -8.47325e-14 -8.30905e-14 -8.16943e-14 -8.0298e-14 -7.90126e-14 -7.80248e-14 -7.76509e-14 -7.71287e-14 -7.66064e-14 -7.62675e-14 -7.59164e-14 -7.53984e-14 -7.44362e-14 -7.34739e-14 -7.22549e-14 -7.0456e-14 -6.89475e-14 -6.70756e-14 -6.52037e-14 -6.28961e-14 -5.98606e-14 -5.80299e-14 -5.63425e-14 -5.46551e-14 -5.27517e-14 -5.09035e-14 -4.97951e-14 -4.88312e-14 -4.78673e-14 -4.70587e-14 -4.6411e-14 -4.53373e-14 -4.37551e-14 -4.21729e-14 -4.05268e-14 -3.81704e-14 -3.55966e-14 -3.39188e-14 -3.2241e-14 -3.03359e-14 -2.93597e-14 -2.83705e-14 -2.81136e-14 -2.78567e-14 -2.78855e-14 -2.88232e-14 -2.89607e-14 -2.90566e-14 -2.91525e-14 -2.95344e-14 -2.98885e-14 -2.9921e-14 -2.95897e-14 -2.92583e-14 -2.85598e-14 -2.74168e-14 -2.55586e-14 -2.35343e-14 -2.151e-14 -1.94044e-14 -1.71522e-14 -1.43765e-14 -1.2134e-14 -9.89138e-15 -7.48847e-15 -5.13462e-15 -3.24899e-15 -2.47042e-15 -1.69186e-15 -1.00285e-15 -1.51976e-15 -9.43543e-16 -4.24605e-16 9.43337e-17 1.3496e-16 -4.86613e-16
-1.00701e-13 -1.00699e-13 -1.00697e-13 -1.00696e-13 -1.00694e-13 -1.00692e-13 -9.76284e-14 -9.42818e-14 -9.09351e-14 -8.77252e-14 -8.45499e-14 -8.29079e-14 -8.15117e-14 -8.01154e-14 -7.87791e-14 -7.77914e-14 -7.74175e-14 -7.68953e-14 -7.6373e-14 -7.59499e-14 -7.55989e-14 -7.50809e-14 -7.41186e-14 -7.31564e-14 -7.20552e-14 -7.02562e-14 -6.87478e-14 -6.68759e-14 -6.5004e-14 -6.28963e-14 -5.98609e-14 -5.80302e-14 -5.63428e-14 -5.46554e-14 -5.28511e-14 -5.10029e-14 -4.98945e-14 -4.89306e-14 -4.79667e-14 -4.70868e-14 -4.64392e-14 -4.53654e-14 -4.37832e-14 -4.2201e-14 -4.05843e-14 -3.82279e-14 -3.56541e-14 -3.39763e-14 -3.22984e-14 -3.04977e-14 -2.95214e-14 -2.85322e-14 -2.82754e-14 -2.80185e-14 -2.79162e-14 -2.88539e-14 -2.89914e-14 -2.90873e-14 -2.91832e-14 -2.94338e-14 -2.9788e-14 -2.98205e-14 -2.94891e-14 -2.91577e-14 -2.86277e-14 -2.74847e-14 -2.56265e-14 -2.36022e-14 -2.15779e-14 -1.95096e-14 -1.72574e-14 -1.44817e-14 -1.22391e-14 -9.99654e-15 -7.6672e-15 -5.31335e-15 -3.42772e-15 -2.64915e-15 -1.87059e-15 -1.14048e-15 -1.65739e-15 -1.08117e-15 -5.62234e-16 -4.32957e-17 2.1683e-16 -4.04743e-16
-1.00634e-13 -1.00633e-13 -1.00631e-13 -1.00629e-13 -1.00627e-13 -1.00625e-13 -9.75618e-14 -9.42152e-14 -9.08685e-14 -8.75427e-14 -8.43673e-14 -8.27253e-14 -8.13291e-14 -7.99328e-14 -7.85457e-14 -7.7558e-14 -7.71841e-14 -7.66618e-14 -7.61396e-14 -7.56324e-14 -7.52813e-14 -7.47633e-14 -7.38011e-14 -7.28389e-14 -7.18555e-14 -7.00565e-14 -6.85481e-14 -6.66762e-14 -6.48043e-14 -6.28966e-14 -5.98611e-14 -5.80304e-14 -5.6343e-14 -5.46557e-14 -5.29505e-14 -5.11023e-14 -4.99939e-14 -4.903e-14 -4.80661e-14 -4.71149e-14 -4.64673e-14 -4.53935e-14 -4.38113e-14 -4.22292e-14 -4.06417e-14 -3.82853e-14 -3.57115e-14 -3.40337e-14 -3.23559e-14 -3.06594e-14 -2.96832e-14 -2.8694e-14 -2.84371e-14 -2.81802e-14 -2.79468e-14 -2.88845e-14 -2.9022e-14 -2.91179e-14 -2.92138e-14 -2.93332e-14 -2.96874e-14 -2.97199e-14 -2.93885e-14 -2.90572e-14 -2.86956e-14 -2.75526e-14 -2.56945e-14 -2.36701e-14 -2.16458e-14 -1.96148e-14 -1.73625e-14 -1.45869e-14 -1.23443e-14 -1.01017e-14 -7.84593e-15 -5.49208e-15 -3.60645e-15 -2.82788e-15 -2.04932e-15 -1.27811e-15 -1.79502e-15 -1.2188e-15 -6.99863e-16 -1.80925e-16 2.98701e-16 -3.22872e-16
-1.00568e-13 -1.00566e-13 -1.00564e-13 -1.00562e-13 -1.00561e-13 -1.00559e-13 -9.74952e-14 -9.41485e-14 -9.08019e-14 -8.74553e-14 -8.41847e-14 -8.25427e-14 -8.11465e-14 -7.97503e-14 -7.8354e-14 -7.73245e-14 -7.69507e-14 -7.64284e-14 -7.59062e-14 -7.53839e-14 -7.49638e-14 -7.44458e-14 -7.34836e-14 -7.25213e-14 -7.15591e-14 -6.98568e-14 -6.83484e-14 -6.64765e-14 -6.46046e-14 -6.27327e-14 -5.98614e-14 -5.80307e-14 -5.63433e-14 -5.46559e-14 -5.29686e-14 -5.12017e-14 -5.00933e-14 -4.91294e-14 -4.81655e-14 -4.72016e-14 -4.64954e-14 -4.54217e-14 -4.38395e-14 -4.22573e-14 -4.06751e-14 -3.83428e-14 -3.5769e-14 -3.40912e-14 -3.24134e-14 -3.07356e-14 -2.9845e-14 -2.88558e-14 -2.85989e-14 -2.8342e-14 -2.80851e-14 -2.89152e-14 -2.90527e-14 -2.91486e-14 -2.92445e-14 -2.93404e-14 -2.95868e-14 -2.96193e-14 -2.92879e-14 -2.89566e-14 -2.86252e-14 -2.76205e-14 -2.57624e-14 -2.3738e-14 -2.17137e-14 -1.96893e-14 -1.74677e-14 -1.4692e-14 -1.24494e-14 -1.02069e-14 -7.96427e-15 -5.67081e-15 -3.78518e-15 -3.00661e-15 -2.22805e-15 -1.44948e-15 -1.93265e-15 -1.35643e-15 -8.37492e-16 -3.18554e-16 2.00384e-16 -2.41002e-16
-1.00501e-13 -1.00499e-13 -1.00498e-13 -1.00496e-13 -1.00494e-13 -1.00492e-13 -9.74286e-14 -9.40819e-14 -9.07353e-14 -8.73886e-14 -8.40021e-14 -8.23601e-14 -8.09639e-14 -7.95677e-14 -7.81714e-14 -7.70911e-14 -7.67172e-14 -7.6195e-14 -7.56727e-14 -7.51505e-14 -7.46463e-14 -7.41283e-14 -7.3166e-14 -7.22038e-14 -7.12415e-14 -6.96571e-14 -6.81486e-14 -6.62768e-14 -6.44049e-14 -6.2533e-14 -5.98617e-14 -5.8031e-14 -5.63436e-14 -5.46562e-14 -5.29688e-14 -5.13011e-14 -5.01927e-14 -4.92288e-14 -4.82649e-14 -4.7301e-14 -4.65236e-14 -4.54498e-14 -4.38676e-14 -4.22854e-14 -4.07032e-14 -3.84003e-14 -3.58264e-14 -3.41486e-14 -3.24708e-14 -3.0793e-14 -3.00067e-14 -2.90175e-14 -2.87607e-14 -2.85038e-14 -2.82469e-14 -2.89458e-14 -2.90833e-14 -2.91792e-14 -2.92751e-14 -2.9371e-14 -2.94862e-14 -2.95187e-14 -2.91874e-14 -2.8856e-14 -2.85246e-14 -2.76884e-14 -2.58303e-14 -2.38059e-14 -2.17816e-14 -1.97572e-14 -1.75728e-14 -1.47972e-14 -1.25546e-14 -1.0312e-14 -8.06942e-15 -5.84954e-15 -3.96391e-15 -3.18534e-15 -2.40678e-15 -1.62821e-15 -2.07028e-15 -1.49406e-15 -9.75122e-16 -4.56184e-16 6.27546e-17 -1.59132e-16