# vtk DataFile Version 2.0
track0
ASCII
DATASET POLYDATA
POINTS 1720 double
-1.001 -0.05 0.0011
-1.0008 -0.05 0.0011
-1.0006 -0.05 0.0011
-1.0004 -0.05 0.0011
-1.0002 -0.05 0.0011
-1 -0.05 0.0011
-0.8 -0.05 0.0011
-0.6 -0.05 0.0011
-0.4 -0.05 0.0011
-0.2 -0.05 0.0011
0 -0.05 0.0011
0.2 -0.05 0.0011
0.4 -0.05 0.0011
0.6 -0.05 0.0011
0.8 -0.05 0.0011
1 -0.05 0.0011
1.2 -0.05 0.0011
1.4 -0.05 0.0011
1.6 -0.05 0.0011
1.8 -0.05 0.0011
2 -0.05 0.0011
2.2 -0.05 0.0011
2.4 -0.05 0.0011
2.6 -0.05 0.0011
2.8 -0.05 0.0011
3 -0.05 0.0011
3.2 -0.05 0.0011
3.4 -0.05 0.0011
3.6 -0.05 0.0011
3.8 -0.05 0.0011
4 -0.05 0.0011
4.2 -0.05 0.0011
4.4 -0.05 0.0011
4.6 -0.05 0.0011
4.8 -0.05 0.0011
5 -0.05 0.0011
5.2 -0.05 0.0011
5.4 -0.05 0.0011
5.6 -0.05 0.0011
5.8 -0.05 0.0011
6 -0.05 0.0011
6.2 -0.05 0.0011
6.4 -0.05 0.0011
6.6 -0.05 0.0011
6.8 -0.05 0.0011
7 -0.05 0.0011
7.2 -0.05 0.0011
7.4 -0.05 0.0011
7.6 -0.05 0.0011
7.8 -0.05 0.0011
8 -0.05 0.0011
8.2 -0.05 0.0011
8.4 -0.05 0.0011
8.6 -0.05 0.0011
8.8 -0.05 0.0011
9 -0.05 0.0011
9.2 -0.05 0.0011
9.4 -0.05 0.0011
9.6 -0.05 0.0011
9.8 -0.05 0.0011
10 -0.05 0.0011
10.2 -0.05 0.0011
10.4 -0.05 0.0011
10.6 -0.05 0.0011
10.8 -0.05 0.0011
11 -0.05 0.0011
11.2 -0.05 0.0011
11.4 -0.05 0.0011
11.6 -0.05 0.0011
11.8 -0.05 0.0011
12 -0.05 0.0011
12.2 -0.05 0.0011
12.4 -0.05 0.0011
12.6 -0.05 0.0011
12.8 -0.05 0.0011
13 -0.05 0.0011
13.2 -0.05 0.0011
13.4 -0.05 0.0011
13.6 -0.05 0.0011
13.8 -0.05 0.0011
14 -0.05 0.0011
14.2 -0.05 0.0011
14.4 -0.05 0.0011
14.6 -0.05 0.0011
14.8 -0.05 0.0011
15 -0.05 0.0011
-1.001 -0.05 0.0537316
-1.0008 -0.05 0.0537316
-1.0006 -0.05 0.0537316
-1.0004 -0.05 0.0537316
-1.0002 -0.05 0.0537316
-1 -0.05 0.0537316
-0.8 -0.05 0.0537316
-0.6 -0.05 0.0537316
-0.4 -0.05 0.0537316
-0.2 -0.05 0.0537316
0 -0.05 0.0537316
0.2 -0.05 0.0537316
0.4 -0.05 0.0537316
0.6 -0.05 0.0537316
0.8 -0.05 0.0537316
1 -0.05 0.0537316
1.2 -0.05 0.0537316
1.4 -0.05 0.0537316
1.6 -0.05 0.0537316
1.8 -0.05 0.0537316
2 -0.05 0.0537316
2.2 -0.05 0.0537316
2.4 -0.05 0.0537316
2.6 -0.05 0.0537316
2.8 -0.05 0.0537316
3 -0.05 0.0537316
3.2 -0.05 0.0537316
3.4 -0.05 0.0537316
3.6 -0.05 0.0537316
3.8 -0.05 0.0537316
4 -0.05 0.0537316
4.2 -0.05 0.0537316
4.4 -0.05 0.0537316
4.6 -0.05 0.0537316
4.8 -0.05 0.0537316
5 -0.05 0.0537316
5.2 -0.05 0.0537316
5.4 -0.05 0.0537316
5.6 -0.05 0.0537316
5.8 -0.05 0.0537316
6 -0.05 0.0537316
6.2 -0.05 0.0537316
6.4 -0.05 0.0537316
6.6 -0.05 0.0537316
6.8 -0.05 0.0537316
7 -0.05 0.0537316
7.2 -0.05 0.0537316
7.4 -0.05 0.0537316
7.6 -0.05 0.0537316
7.8 -0.05 0.0537316
8 -0.05 0.0537316
8.2 -0.05 0.0537316
8.4 -0.05 0.0537316
8.6 -0.05 0.0537316
8.8 -0.05 0.0537316
9 -0.05 0.0537316
9.2 -0.05 0.0537316
9.4 -0.05 0.0537316
9.6 -0.05 0.0537316
9.8 -0.05 0.0537316
10 -0.05 0.0537316
10.2 -0.05 0.0537316
10.4 -0.05 0.0537316
10.6 -0.05 0.0537316
10.8 -0.05 0.0537316
11 -0.05 0.0537316
11.2 -0.05 0.0537316
11.4 -0.05 0.0537316
11.6 -0.05 0.0537316
11.8 -0.05 0.0537316
12 -0.05 0.0537316
12.2 -0.05 0.0537316
12.4 -0.05 0.0537316
12.6 -0.05 0.0537316
12.8 -0.05 0.0537316
13 -0.05 0.0537316
13.2 -0.05 0.0537316
13.4 -0.05 0.0537316
13.6 -0.05 0.0537316
13.8 -0.05 0.0537316
14 -0.05 0.0537316
14.2 -0.05 0.0537316
14.4 -0.05 0.0537316
14.6 -0.05 0.0537316
14.8 -0.05 0.0537316
15 -0.05 0.0537316
-1.001 -0.05 0.106363
-1.0008 -0.05 0.106363
-1.0006 -0.05 0.106363
-1.0004 -0.05 0.106363
-1.0002 -0.05 0.106363
-1 -0.05 0.106363
-0.8 -0.05 0.106363
-0.6 -0.05 0.106363
-0.4 -0.05 0.106363
-0.2 -0.05 0.106363
0 -0.05 0.106363
0.2 -0.05 0.106363
0.4 -0.05 0.106363
0.6 -0.05 0.106363
0.8 -0.05 0.106363
1 -0.05 0.106363
1.2 -0.05 0.106363
1.4 -0.05 0.106363
1.6 -0.05 0.106363
1.8 -0.05 0.106363
2 -0.05 0.106363
2.2 -0.05 0.106363
2.4 -0.05 0.106363
2.6 -0.05 0.106363
2.8 -0.05 0.106363
3 -0.05 0.106363
3.2 -0.05 0.106363
3.4 -0.05 0.106363
3.6 -0.05 0.106363
3.8 -0.05 0.106363
4 -0.05 0.106363
4.2 -0.05 0.106363
4.4 -0.05 0.106363
4.6 -0.05 0.106363
4.8 -0.05 0.106363
5 -0.05 0.106363
5.2 -0.05 0.106363
5.4 -0.05 0.106363
5.6 -0.05 0.106363
5.8 -0.05 0.106363
6 -0.05 0.106363
6.2 -0.05 0.106363
6.4 -0.05 0.106363
6.6 -0.05 0.106363
6.8 -0.05 0.106363
7 -0.05 0.106363
7.2 -0.05 0.106363
7.4 -0.05 0.106363
7.6 -0.05 0.106363
7.8 -0.05 0.106363
8 -0.05 0.106363
8.2 -0.05 0.106363
8.4 -0.05 0.106363
8.6 -0.05 0.106363
8.8 -0.05 0.106363
9 -0.05 0.106363
9.2 -0.05 0.106363
9.4 -0.05 0.106363
9.6 -0.05 0.106363
9.8 -0.05 0.106363
10 -0.05 0.106363
10.2 -0.05 0.106363
10.4 -0.05 0.106363
10.6 -0.05 0.106363
10.8 -0.05 0.106363
11 -0.05 0.106363
11.2 -0.05 0.106363
11.4 -0.05 0.106363
11.6 -0.05 0.106363
11.8 -0.05 0.106363
12 -0.05 0.106363
12.2 -0.05 0.106363
12.4 -0.05 0.106363
12.6 -0.05 0.106363
12.8 -0.05 0.106363
13 -0.05 0.106363
13.2 -0.05 0.106363
13.4 -0.05 0.106363
13.6 -0.05 0.106363
13.8 -0.05 0.106363
14 -0.05 0.106363
14.2 -0.05 0.106363
14.4 -0.05 0.106363
14.6 -0.05 0.106363
14.8 -0.05 0.106363
15 -0.05 0.106363
-1.001 -0.05 0.158995
-1.0008 -0.05 0.158995
-1.0006 -0.05 0.158995
-1.0004 -0.05 0.158995
-1.0002 -0.05 0.158995
-1 -0.05 0.158995
-0.8 -0.05 0.158995
-0.6 -0.05 0.158995
-0.4 -0.05 0.158995
-0.2 -0.05 0.158995
0 -0.05 0.158995
0.2 -0.05 0.158995
0.4 -0.05 0.158995
0.6 -0.05 0.158995
0.8 -0.05 0.158995
1 -0.05 0.158995
1.2 -0.05 0.158995
1.4 -0.05 0.158995
1.6 -0.05 0.158995
1.8 -0.05 0.158995
2 -0.05 0.158995
2.2 -0.05 0.158995
2.4 -0.05 0.158995
2.6 -0.05 0.158995
2.8 -0.05 0.158995
3 -0.05 0.158995
3.2 -0.05 0.158995
3.4 -0.05 0.158995
3.6 -0.05 0.158995
3.8 -0.05 0.158995
4 -0.05 0.158995
4.2 -0.05 0.158995
4.4 -0.05 0.158995
4.6 -0.05 0.158995
4.8 -0.05 0.158995
5 -0.05 0.158995
5.2 -0.05 0.158995
5.4 -0.05 0.158995
5.6 -0.05 0.158995
5.8 -0.05 0.158995
6 -0.05 0.158995
6.2 -0.05 0.158995
6.4 -0.05 0.158995
6.6 -0.05 0.158995
6.8 -0.05 0.158995
7 -0.05 0.158995
7.2 -0.05 0.158995
7.4 -0.05 0.158995
7.6 -0.05 0.158995
7.8 -0.05 0.158995
8 -0.05 0.158995
8.2 -0.05 0.158995
8.4 -0.05 0.158995
8.6 -0.05 0.158995
8.8 -0.05 0.158995
9 -0.05 0.158995
9.2 -0.05 0.158995
9.4 -0.05 0.158995
9.6 -0.05 0.158995
9.8 -0.05 0.158995
10 -0.05 0.158995
10.2 -0.05 0.158995
10.4 -0.05 0.158995
10.6 -0.05 0.158995
10.8 -0.05 0.158995
11 -0.05 0.158995
11.2 -0.05 0.158995
11.4 -0.05 0.158995
11.6 -0.05 0.158995
11.8 -0.05 0.158995
12 -0.05 0.158995
12.2 -0.05 0.158995
12.4 -0.05 0.158995
12.6 -0.05 0.158995
12.8 -0.05 0.158995
13 -0.05 0.158995
13.2 -0.05 0.158995
13.4 -0.05 0.158995
13.6 -0.05 0.158995
13.8 -0.05 0.158995
14 -0.05 0.158995
14.2 -0.05 0.158995
14.4 -0.05 0.158995
14.6 -0.05 0.158995
14.8 -0.05 0.158995
15 -0.05 0.158995
-1.001 -0.05 0.211626
-1.0008 -0.05 0.211626
-1.0006 -0.05 0.211626
-1.0004 -0.05 0.211626
-1.0002 -0.05 0.211626
-1 -0.05 0.211626
-0.8 -0.05 0.211626
-0.6 -0.05 0.211626
-0.4 -0.05 0.211626
-0.2 -0.05 0.211626
0 -0.05 0.211626
0.2 -0.05 0.211626
0.4 -0.05 0.211626
0.6 -0.05 0.211626
0.8 -0.05 0.211626
1 -0.05 0.211626
1.2 -0.05 0.211626
1.4 -0.05 0.211626
1.6 -0.05 0.211626
1.8 -0.05 0.211626
2 -0.05 0.211626
2.2 -0.05 0.211626
2.4 -0.05 0.211626
2.6 -0.05 0.211626
2.8 -0.05 0.211626
3 -0.05 0.211626
3.2 -0.05 0.211626
3.4 -0.05 0.211626
3.6 -0.05 0.211626
3.8 -0.05 0.211626
4 -0.05 0.211626
4.2 -0.05 0.211626
4.4 -0.05 0.211626
4.6 -0.05 0.211626
4.8 -0.05 0.211626
5 -0.05 0.211626
5.2 -0.05 0.211626
5.4 -0.05 0.211626
5.6 -0.05 0.211626
5.8 -0.05 0.211626
6 -0.05 0.211626
6.2 -0.05 0.211626
6.4 -0.05 0.211626
6.6 -0.05 0.211626
6.8 -0.05 0.211626
7 -0.05 0.211626
7.2 -0.05 0.211626
7.4 -0.05 0.211626
7.6 -0.05 0.211626
7.8 -0.05 0.211626
8 -0.05 0.211626
8.2 -0.05 0.211626
8.4 -0.05 0.211626
8.6 -0.05 0.211626
8.8 -0.05 0.211626
9 -0.05 0.211626
9.2 -0.05 0.211626
9.4 -0.05 0.211626
9.6 -0.05 0.211626
9.8 -0.05 0.211626
10 -0.05 0.211626
10.2 -0.05 0.211626
10.4 -0.05 0.211626
10.6 -0.05 0.211626
10.8 -0.05 0.211626
11 -0.05 0.211626
11.2 -0.05 0.211626
11.4 -0.05 0.211626
11.6 -0.05 0.211626
11.8 -0.05 0.211626
12 -0.05 0.211626
12.2 -0.05 0.211626
12.4 -0.05 0.211626
12.6 -0.05 0.211626
12.8 -0.05 0.211626
13 -0.05 0.211626
13.2 -0.05 0.211626
13.4 -0.05 0.211626
13.6 -0.05 0.211626
13.8 -0.05 0.211626
14 -0.05 0.211626
14.2 -0.05 0.211626
14.4 -0.05 0.211626
14.6 -0.05 0.211626
14.8 -0.05 0.211626
15 -0.05 0.211626
-1.001 -0.05 0.264258
-1.0008 -0.05 0.264258
-1.0006 -0.05 0.264258
-1.0004 -0.05 0.264258
-1.0002 -0.05 0.264258
-1 -0.05 0.264258
-0.8 -0.05 0.264258
-0.6 -0.05 0.264258
-0.4 -0.05 0.264258
-0.2 -0.05 0.264258
0 -0.05 0.264258
0.2 -0.05 0.264258
0.4 -0.05 0.264258
0.6 -0.05 0.264258
0.8 -0.05 0.264258
1 -0.05 0.264258
1.2 -0.05 0.264258
1.4 -0.05 0.264258
1.6 -0.05 0.264258
1.8 -0.05 0.264258
2 -0.05 0.264258
2.2 -0.05 0.264258
2.4 -0.05 0.264258
2.6 -0.05 0.264258
2.8 -0.05 0.264258
3 -0.05 0.264258
3.2 -0.05 0.264258
3.4 -0.05 0.264258
3.6 -0.05 0.264258
3.8 -0.05 0.264258
4 -0.05 0.264258
4.2 -0.05 0.264258
4.4 -0.05 0.264258
4.6 -0.05 0.264258
4.8 -0.05 0.264258
5 -0.05 0.264258
5.2 -0.05 0.264258
5.4 -0.05 0.264258
5.6 -0.05 0.264258
5.8 -0.05 0.264258
6 -0.05 0.264258
6.2 -0.05 0.264258
6.4 -0.05 0.264258
6.6 -0.05 0.264258
6.8 -0.05 0.264258
7 -0.05 0.264258
7.2 -0.05 0.264258
7.4 -0.05 0.264258
7.6 -0.05 0.264258
7.8 -0.05 0.264258
8 -0.05 0.264258
8.2 -0.05 0.264258
8.4 -0.05 0.264258
8.6 -0.05 0.264258
8.8 -0.05 0.264258
9 -0.05 0.264258
9.2 -0.05 0.264258
9.4 -0.05 0.264258
9.6 -0.05 0.264258
9.8 -0.05 0.264258
10 -0.05 0.264258
10.2 -0.05 0.264258
10.4 -0.05 0.264258
10.6 -0.05 0.264258
10.8 -0.05 0.264258
11 -0.05 0.264258
11.2 -0.05 0.264258
11.4 -0.05 0.264258
11.6 -0.05 0.264258
11.8 -0.05 0.264258
12 -0.05 0.264258
12.2 -0.05 0.264258
12.4 -0.05 0.264258
12.6 -0.05 0.264258
12.8 -0.05 0.264258
13 -0.05 0.264258
13.2 -0.05 0.264258
13.4 -0.05 0.264258
13.6 -0.05 0.264258
13.8 -0.05 0.264258
14 -0.05 0.264258
14.2 -0.05 0.264258
14.4 -0.05 0.264258
14.6 -0.05 0.264258
14.8 -0.05 0.264258
15 -0.05 0.264258
-1.001 -0.05 0.316889
-1.0008 -0.05 0.316889
-1.0006 -0.05 0.316889
-1.0004 -0.05 0.316889
[...]
POINT_DATA 1720
 FIELD attributes 1
U 3 1720 float
20 	-1.90364e-18 	1.0368e-18 20 	-1.56041e-18 	8.54621e-19 20 	-1.21718e-18 	6.72438e-19 20 	-8.73942e-19 	4.90254e-19 20 	-5.30709e-19 	3.08071e-19 20 	-1.87475e-19 	1.25888e-19 20 	-5.91907e-19 	-1.84711e-18 20 	-5.91907e-19 	-1.84711e-18 20 	-5.91907e-19 	-1.84711e-18 20 	-5.91907e-19 	-1.84711e-18 20 	-4.06908e-19 	-1.12669e-19 20 	-1.70691e-18 	-6.49196e-19 20 	-1.70691e-18 	-6.49196e-19 20 	-1.70691e-18 	-6.49196e-19 20 	-1.70691e-18 	-6.49196e-19 20 	-4.25867e-19 	7.40829e-20 20 	-1.40681e-18 	-5.25678e-19 20 	-1.40681e-18 	-5.25678e-19 20 	-1.40681e-18 	-5.25678e-19 20 	-1.40681e-18 	-5.25678e-19 20 	6.72997e-20 	-3.15008e-19 20 	7.70992e-19 	-1.2058e-18 20 	7.70992e-19 	-1.2058e-18 20 	7.70992e-19 	-1.2058e-18 20 	7.70992e-19 	-1.2058e-18 20 	5.00504e-19 	-4.41301e-19 20 	3.0656e-18 	3.62199e-19 20 	3.0656e-18 	3.62199e-19 20 	3.0656e-18 	3.62199e-19 20 	3.0656e-18 	3.62199e-19 20 	2.96995e-19 	-3.08268e-19 20 	2.84868e-18 	6.17299e-19 20 	2.84868e-18 	6.17299e-19 20 	2.84868e-18 	6.17299e-19 20 	2.84868e-18 	6.17299e-19 20 	-3.02288e-20 	-2.38039e-20 20 	-4.55543e-19 	6.7817e-19 20 	-4.55543e-19 	6.7817e-19 20 	-4.55543e-19 	6.7817e-19 20 	-4.55543e-19 	6.7817e-19 20 	-2.60768e-19 	9.56697e-20 20 	3.42031e-19 	-1.53625e-18 20 	3.42031e-19 	-1.53625e-18 20 	3.42031e-19 	-1.53625e-18 20 	3.42031e-19 	-1.53625e-18 20 	-5.37267e-19 	5.95826e-20 20 	-1.36855e-18 	1.21639e-18 20 	-1.36855e-18 	1.21639e-18 20 	-1.36855e-18 	1.21639e-18 20 	-1.36855e-18 	1.21639e-18 20 	-5.46711e-19 	3.11935e-19 20 	-1.34325e-18 	8.22276e-19 20 	-1.34325e-18 	8.22276e-19 20 	-1.34325e-18 	8.22276e-19 20 	-1.34325e-18 	8.22276e-19 20 	1.46136e-20 	4.35999e-19 20 	-6.3949e-19 	5.67854e-19 20 	-6.3949e-19 	5.67854e-19 20 	-6.3949e-19 	5.67854e-19 20 	-6.3949e-19 	5.67854e-19 20 	1.48014e-19 	1.64827e-19 20 	1.02249e-18 	1.30855e-18 20 	1.02249e-18 	1.30855e-18 20 	1.02249e-18 	1.30855e-18 20 	1.02249e-18 	1.30855e-18 20 	2.35627e-19 	-1.08703e-19 20 	3.64739e-18 	1.23262e-18 20 	3.64739e-18 	1.23262e-18 20 	3.64739e-18 	1.23262e-18 20 	3.64739e-18 	1.23262e-18 20 	8.3562e-19 	-3.9799e-19 20 	3.98236e-18 	-3.14367e-19 20 	3.98236e-18 	-3.14367e-19 20 	3.98236e-18 	-3.14367e-19 20 	3.98236e-18 	-3.14367e-19 20 	9.78777e-19 	-3.29011e-19 20 	3.67379e-18 	1.28982e-18 20 	3.67379e-18 	1.28982e-18 20 	3.67379e-18 	1.28982e-18 20 	3.67379e-18 	1.28982e-18 20 	1.06796e-18 	1.79924e-19 20 	1.06527e-16 	3.23777e-17 20 	2.11387e-16 	6.37234e-17 20 	3.16247e-16 	9.50691e-17 20 	4.21107e-16 	1.26415e-16 20 	5.14735e-16 	1.48957e-16
20 	-1.08737e-17 	7.06014e-18 20 	-1.05305e-17 	6.87795e-18 20 	-1.01873e-17 	6.69577e-18 20 	-9.84403e-18 	6.51359e-18 20 	-9.5008e-18 	6.3314e-18 20 	-9.15757e-18 	6.14922e-18 20 	-2.82852e-17 	-8.43418e-17 20 	-2.82852e-17 	-8.43418e-17 20 	-2.82852e-17 	-8.43418e-17 20 	-2.82852e-17 	-8.43418e-17 20 	-1.98762e-17 	-5.50353e-18 20 	-7.90313e-17 	-2.92576e-17 20 	-7.90313e-17 	-2.92576e-17 20 	-7.90313e-17 	-2.92576e-17 20 	-7.90313e-17 	-2.92576e-17 20 	-2.08023e-17 	3.61872e-18 20 	-6.37175e-17 	-2.49631e-17 20 	-6.37175e-17 	-2.49631e-17 20 	-6.37175e-17 	-2.49631e-17 20 	-6.37175e-17 	-2.49631e-17 20 	3.28738e-18 	-1.53872e-17 20 	3.6743e-17 	-5.63063e-17 20 	3.6743e-17 	-5.63063e-17 20 	3.6743e-17 	-5.63063e-17 20 	3.6743e-17 	-5.63063e-17 20 	2.44481e-17 	-2.15562e-17 20 	1.40353e-16 	1.54178e-17 20 	1.40353e-16 	1.54178e-17 20 	1.40353e-16 	1.54178e-17 20 	1.40353e-16 	1.54178e-17 20 	1.45073e-17 	-1.50579e-17 20 	1.29383e-16 	2.79783e-17 20 	1.29383e-16 	2.79783e-17 20 	1.29383e-16 	2.79783e-17 20 	1.29383e-16 	2.79783e-17 20 	-1.47658e-18 	-1.16275e-18 20 	-2.15911e-17 	3.11505e-17 20 	-2.15911e-17 	3.11505e-17 20 	-2.15911e-17 	3.11505e-17 20 	-2.15911e-17 	3.11505e-17 20 	-1.27377e-17 	4.67317e-18 20 	1.37243e-17 	-6.96276e-17 20 	1.37243e-17 	-6.96276e-17 20 	1.37243e-17 	-6.96276e-17 20 	1.37243e-17 	-6.96276e-17 20 	-2.62438e-17 	2.91042e-18 20 	-6.40613e-17 	5.63485e-17 20 	-6.40613e-17 	5.63485e-17 20 	-6.40613e-17 	5.63485e-17 20 	-6.40613e-17 	5.63485e-17 20 	-2.67051e-17 	1.52371e-17 20 	-6.10074e-17 	3.88552e-17 20 	-6.10074e-17 	3.88552e-17 20 	-6.10074e-17 	3.88552e-17 20 	-6.10074e-17 	3.88552e-17 20 	7.13826e-19 	2.12972e-17 20 	-2.85656e-17 	2.63707e-17 20 	-2.85656e-17 	2.63707e-17 20 	-2.85656e-17 	2.63707e-17 20 	-2.85656e-17 	2.63707e-17 20 	7.23005e-18 	8.05128e-18 20 	4.72763e-17 	5.91108e-17 20 	4.72763e-17 	5.91108e-17 20 	4.72763e-17 	5.91108e-17 20 	4.72763e-17 	5.91108e-17 20 	1.15097e-17 	-5.3098e-18 20 	1.68625e-16 	5.46781e-17 20 	1.68625e-16 	5.46781e-17 20 	1.68625e-16 	5.46781e-17 20 	1.68625e-16 	5.46781e-17 20 	4.08175e-17 	-1.94406e-17 20 	1.84337e-16 	-1.54055e-17 20 	1.84337e-16 	-1.54055e-17 20 	1.84337e-16 	-1.54055e-17 20 	1.84337e-16 	-1.54055e-17 20 	4.78102e-17 	-1.60712e-17 20 	1.70613e-16 	5.92388e-17 20 	1.70613e-16 	5.92388e-17 20 	1.70613e-16 	5.92388e-17 20 	1.70613e-16 	5.92388e-17 20 	5.21664e-17 	8.78875e-18 20 	1.82949e-16 	7.84486e-17 20 	2.87809e-16 	1.09794e-16 20 	3.92669e-16 	1.4114e-16 20 	4.97528e-16 	1.72486e-16 20 	5.47155e-16 	1.51717e-16
20 	-1.98438e-17 	1.30835e-17 20 	-1.95006e-17 	1.29013e-17 20 	-1.91574e-17 	1.27191e-17 20 	-1.88141e-17 	1.25369e-17 20 	-1.84709e-17 	1.23547e-17 20 	-1.81277e-17 	1.21726e-17 20 	-4.77545e-17 	-8.97327e-17 20 	-4.77545e-17 	-8.97327e-17 20 	-4.77545e-17 	-8.97327e-17 20 	-4.77545e-17 	-8.97327e-17 20 	-3.93454e-17 	-1.08944e-17 20 	-9.94078e-17 	-2.57129e-17 20 	-9.94078e-17 	-2.57129e-17 20 	-9.94078e-17 	-2.57129e-17 20 	-9.94078e-17 	-2.57129e-17 20 	-4.11787e-17 	7.16335e-18 20 	-6.04974e-17 	-4.00352e-17 20 	-6.04974e-17 	-4.00352e-17 20 	-6.04974e-17 	-4.00352e-17 20 	-6.04974e-17 	-4.00352e-17 20 	6.50746e-18 	-3.04593e-17 20 	6.06905e-17 	-7.74212e-17 20 	6.06905e-17 	-7.74212e-17 20 	6.06905e-17 	-7.74212e-17 20 	6.06905e-17 	-7.74212e-17 20 	4.83957e-17 	-4.2671e-17 20 	1.54563e-16 	6.68164e-19 20 	1.54563e-16 	6.68164e-19 20 	1.54563e-16 	6.68164e-19 20 	1.54563e-16 	6.68164e-19 20 	2.87176e-17 	-2.98076e-17 20 	1.27936e-16 	2.68394e-17 20 	1.27936e-16 	2.68394e-17 20 	1.27936e-16 	2.68394e-17 20 	1.27936e-16 	2.68394e-17 20 	-2.92294e-18 	-2.30169e-18 20 	-3.40681e-17 	3.57279e-17 20 	-3.40681e-17 	3.57279e-17 20 	-3.40681e-17 	3.57279e-17 20 	-3.40681e-17 	3.57279e-17 20 	-2.52147e-17 	9.25066e-18 20 	-1.19823e-17 	-6.67768e-17 20 	-1.19823e-17 	-6.67768e-17 20 	-1.19823e-17 	-6.67768e-17 20 	-1.19823e-17 	-6.67768e-17 20 	-5.19504e-17 	5.76126e-18 20 	-9.02197e-17 	7.12736e-17 20 	-9.02197e-17 	7.12736e-17 20 	-9.02197e-17 	7.12736e-17 20 	-9.02197e-17 	7.12736e-17 20 	-5.28636e-17 	3.01622e-17 20 	-6.03082e-17 	5.97164e-17 20 	-6.03082e-17 	5.97164e-17 20 	-6.03082e-17 	5.97164e-17 20 	-6.03082e-17 	5.97164e-17 20 	1.41304e-18 	4.21584e-17 20 	-2.14836e-17 	3.42572e-17 20 	-2.14836e-17 	3.42572e-17 20 	-2.14836e-17 	3.42572e-17 20 	-2.14836e-17 	3.42572e-17 20 	1.43121e-17 	1.59377e-17 20 	5.85503e-17 	5.39097e-17 20 	5.85503e-17 	5.39097e-17 20 	5.85503e-17 	5.39097e-17 20 	5.85503e-17 	5.39097e-17 20 	2.27837e-17 	-1.05109e-17 20 	2.08607e-16 	3.56356e-17 20 	2.08607e-16 	3.56356e-17 20 	2.08607e-16 	3.56356e-17 20 	2.08607e-16 	3.56356e-17 20 	8.07993e-17 	-3.84832e-17 20 	2.31168e-16 	-3.11477e-17 20 	2.31168e-16 	-3.11477e-17 20 	2.31168e-16 	-3.11477e-17 20 	2.31168e-16 	-3.11477e-17 20 	9.46416e-17 	-3.18133e-17 20 	2.21712e-16 	6.78476e-17 20 	2.21712e-16 	6.78476e-17 20 	2.21712e-16 	6.78476e-17 20 	2.21712e-16 	6.78476e-17 20 	1.03265e-16 	1.73976e-17 20 	2.15369e-16 	8.12087e-17 20 	3.20229e-16 	1.12554e-16 20 	4.25089e-16 	1.439e-16 20 	5.29949e-16 	1.75246e-16 20 	5.79576e-16 	1.54477e-16
20 	-2.88139e-17 	1.91068e-17 20 	-2.84707e-17 	1.89246e-17 20 	-2.81275e-17 	1.87424e-17 20 	-2.77842e-17 	1.85603e-17 20 	-2.7441e-17 	1.83781e-17 20 	-2.70978e-17 	1.81959e-17 20 	-6.72238e-17 	-9.51236e-17 20 	-6.72238e-17 	-9.51236e-17 20 	-6.72238e-17 	-9.51236e-17 20 	-6.72238e-17 	-9.51236e-17 20 	-5.88147e-17 	-1.62853e-17 20 	-1.19784e-16 	-2.21683e-17 20 	-1.19784e-16 	-2.21683e-17 20 	-1.19784e-16 	-2.21683e-17 20 	-1.19784e-16 	-2.21683e-17 20 	-6.15552e-17 	1.0708e-17 20 	-5.72773e-17 	-5.51074e-17 20 	-5.72773e-17 	-5.51074e-17 20 	-5.72773e-17 	-5.51074e-17 20 	-5.72773e-17 	-5.51074e-17 20 	9.72754e-18 	-4.55314e-17 20 	8.46381e-17 	-9.85361e-17 20 	8.46381e-17 	-9.85361e-17 20 	8.46381e-17 	-9.85361e-17 20 	8.46381e-17 	-9.85361e-17 20 	7.23432e-17 	-6.37859e-17 20 	1.68774e-16 	-1.40815e-17 20 	1.68774e-16 	-1.40815e-17 20 	1.68774e-16 	-1.40815e-17 20 	1.68774e-16 	-1.40815e-17 20 	4.29279e-17 	-4.45573e-17 20 	1.2649e-16 	2.57004e-17 20 	1.2649e-16 	2.57004e-17 20 	1.2649e-16 	2.57004e-17 20 	1.2649e-16 	2.57004e-17 20 	-4.36929e-18 	-3.44063e-18 20 	-4.6545e-17 	4.03054e-17 20 	-4.6545e-17 	4.03054e-17 20 	-4.6545e-17 	4.03054e-17 20 	-4.6545e-17 	4.03054e-17 20 	-3.76916e-17 	1.38282e-17 20 	-3.76888e-17 	-6.39259e-17 20 	-3.76888e-17 	-6.39259e-17 20 	-3.76888e-17 	-6.39259e-17 20 	-3.76888e-17 	-6.39259e-17 20 	-7.76569e-17 	8.6121e-18 20 	-1.16378e-16 	8.61987e-17 20 	-1.16378e-16 	8.61987e-17 20 	-1.16378e-16 	8.61987e-17 20 	-1.16378e-16 	8.61987e-17 20 	-7.9022e-17 	4.50873e-17 20 	-5.9609e-17 	8.05776e-17 20 	-5.9609e-17 	8.05776e-17 20 	-5.9609e-17 	8.05776e-17 20 	-5.9609e-17 	8.05776e-17 20 	2.11225e-18 	6.30196e-17 20 	-1.44015e-17 	4.21436e-17 20 	-1.44015e-17 	4.21436e-17 20 	-1.44015e-17 	4.21436e-17 20 	-1.44015e-17 	4.21436e-17 20 	2.13941e-17 	2.38242e-17 20 	6.98243e-17 	4.87086e-17 20 	6.98243e-17 	4.87086e-17 20 	6.98243e-17 	4.87086e-17 20 	6.98243e-17 	4.87086e-17 20 	3.40577e-17 	-1.5712e-17 20 	2.48589e-16 	1.6593e-17 20 	2.48589e-16 	1.6593e-17 20 	2.48589e-16 	1.6593e-17 20 	2.48589e-16 	1.6593e-17 20 	1.20781e-16 	-5.75257e-17 20 	2.78e-16 	-4.68899e-17 20 	2.78e-16 	-4.68899e-17 20 	2.78e-16 	-4.68899e-17 20 	2.78e-16 	-4.68899e-17 20 	1.41473e-16 	-4.75555e-17 20 	2.7281e-16 	7.64564e-17 20 	2.7281e-16 	7.64564e-17 20 	2.7281e-16 	7.64564e-17 20 	2.7281e-16 	7.64564e-17 20 	1.54363e-16 	2.60064e-17 20 	2.4779e-16 	8.39689e-17 20 	3.52649e-16 	1.15315e-16 20 	4.57509e-16 	1.4666e-16 20 	5.62369e-16 	1.78006e-16 20 	6.11996e-16 	1.57237e-16
20 	-3.7784e-17 	2.51301e-17 20 	-3.74408e-17 	2.4948e-17 20 	-3.70975e-17 	2.47658e-17 20 	-3.67543e-17 	2.45836e-17 20 	-3.64111e-17 	2.44014e-17 20 	-3.60678e-17 	2.42192e-17 20 	-8.43738e-17 	-9.7993e-17 20 	-8.6693e-17 	-1.00514e-16 20 	-8.6693e-17 	-1.00514e-16 20 	-8.6693e-17 	-1.00514e-16 20 	-7.8284e-17 	-2.16761e-17 20 	-1.3996e-16 	-2.05975e-17 20 	-1.40161e-16 	-1.86237e-17 20 	-1.40161e-16 	-1.86237e-17 20 	-1.40161e-16 	-1.86237e-17 20 	-8.19316e-17 	1.42526e-17 20 	-5.92697e-17 	-6.60671e-17 20 	-5.40572e-17 	-7.01795e-17 20 	-5.40572e-17 	-7.01795e-17 20 	-5.40572e-17 	-7.01795e-17 20 	1.29476e-17 	-6.06036e-17 20 	1.04007e-16 	-1.18316e-16 20 	1.08586e-16 	-1.19651e-16 20 	1.08586e-16 	-1.19651e-16 20 	1.08586e-16 	-1.19651e-16 20 	9.62908e-17 	-8.49007e-17 20 	1.85135e-16 	-3.02372e-17 20 	1.82984e-16 	-2.88312e-17 20 	1.82984e-16 	-2.88312e-17 20 	1.82984e-16 	-2.88312e-17 20 	5.71382e-17 	-5.93069e-17 20 	1.28502e-16 	2.15549e-17 20 	1.25044e-16 	2.45615e-17 20 	1.25044e-16 	2.45615e-17 20 	1.25044e-16 	2.45615e-17 20 	-5.81564e-18 	-4.57958e-18 20 	-5.65853e-17 	4.36202e-17 20 	-5.9022e-17 	4.48829e-17 20 	-5.9022e-17 	4.48829e-17 20 	-5.9022e-17 	4.48829e-17 20 	-5.01686e-17 	1.84057e-17 20 	-6.04729e-17 	-6.06937e-17 20 	-6.33954e-17 	-6.10751e-17 20 	-6.33954e-17 	-6.10751e-17 20 	-6.33954e-17 	-6.10751e-17 20 	-1.03363e-16 	1.14629e-17 20 	-1.42437e-16 	9.84566e-17 20 	-1.42537e-16 	1.01124e-16 20 	-1.42537e-16 	1.01124e-16 20 	-1.42537e-16 	1.01124e-16 20 	-1.0518e-16 	6.00124e-17 20 	-6.48427e-17 	1.00128e-16 20 	-5.89098e-17 	1.01439e-16 20 	-5.89098e-17 	1.01439e-16 20 	-5.89098e-17 	1.01439e-16 20 	2.81147e-18 	8.38808e-17 20 	-8.72947e-18 	5.28962e-17 20 	-7.31951e-18 	5.003e-17 20 	-7.31951e-18 	5.003e-17 20 	-7.31951e-18 	5.003e-17 20 	2.84761e-17 	3.17106e-17 20 	8.01723e-17 	4.63985e-17 20 	8.10984e-17 	4.35075e-17 20 	8.10984e-17 	4.35075e-17 20 	8.10984e-17 	4.35075e-17 20 	4.53318e-17 	-2.09131e-17 20 	2.82229e-16 	6.07992e-19 20 	2.88571e-16 	-2.44959e-18 20 	2.88571e-16 	-2.44959e-18 20 	2.88571e-16 	-2.44959e-18 20 	1.60763e-16 	-7.65683e-17 20 	3.23318e-16 	-6.33611e-17 20 	3.24831e-16 	-6.2632e-17 20 	3.24831e-16 	-6.2632e-17 20 	3.24831e-16 	-6.2632e-17 20 	1.88304e-16 	-6.32977e-17 20 	3.22966e-16 	7.96861e-17 20 	3.23909e-16 	8.50652e-17 20 	3.23909e-16 	8.50652e-17 20 	3.23909e-16 	8.50652e-17 20 	2.05462e-16 	3.46152e-17 20 	2.84336e-16 	8.8021e-17 20 	3.8507e-16 	1.18075e-16 20 	4.89929e-16 	1.4942e-16 20 	5.94789e-16 	1.80766e-16 20 	6.44416e-16 	1.59997e-16
20 	-4.67541e-17 	3.11535e-17 20 	-4.64109e-17 	3.09713e-17 20 	-4.60676e-17 	3.07891e-17 20 	-4.57244e-17 	3.06069e-17 20 	-4.53812e-17 	3.04247e-17 20 	-4.50379e-17 	3.02426e-17 20 	-9.33439e-17 	-9.19697e-17 20 	-1.06162e-16 	-1.05905e-16 20 	-1.06162e-16 	-1.05905e-16 20 	-1.06162e-16 	-1.05905e-16 20 	-9.77532e-17 	-2.7067e-17 20 	-1.5943e-16 	-2.59884e-17 20 	-1.60537e-16 	-1.5079e-17 20 	-1.60537e-16 	-1.5079e-17 20 	-1.60537e-16 	-1.5079e-17 20 	-1.02308e-16 	1.77973e-17 20 	-7.96461e-17 	-6.25224e-17 20 	-5.08371e-17 	-8.52516e-17 20 	-5.08371e-17 	-8.52516e-17 20 	-5.08371e-17 	-8.52516e-17 20 	1.61677e-17 	-7.56757e-17 20 	1.07227e-16 	-1.33388e-16 20 	1.32533e-16 	-1.40766e-16 20 	1.32533e-16 	-1.40766e-16 20 	1.32533e-16 	-1.40766e-16 20 	1.20238e-16 	-1.06016e-16 20 	2.09082e-16 	-5.13521e-17 20 	1.97194e-16 	-4.35808e-17 20 	1.97194e-16 	-4.35808e-17 20 	1.97194e-16 	-4.35808e-17 20 	7.13484e-17 	-7.40566e-17 20 	1.42713e-16 	6.8052e-18 20 	1.23597e-16 	2.34225e-17 20 	1.23597e-16 	2.34225e-17 20 	1.23597e-16 	2.34225e-17 20 	-7.262e-18 	-5.71852e-18 20 	-5.80317e-17 	4.24812e-17 20 	-7.1499e-17 	4.94604e-17 20 	-7.1499e-17 	4.94604e-17 20 	-7.1499e-17 	4.94604e-17 20 	-6.26456e-17 	2.29832e-17 20 	-7.29499e-17 	-5.61162e-17 20 	-8.91019e-17 	-5.82243e-17 20 	-8.91019e-17 	-5.82243e-17 20 	-8.91019e-17 	-5.82243e-17 20 	-1.2907e-16 	1.43138e-17 20 	-1.68143e-16 	1.01307e-16 20 	-1.68695e-16 	1.16049e-16 20 	-1.68695e-16 	1.16049e-16 20 	-1.68695e-16 	1.16049e-16 20 	-1.31339e-16 	7.49375e-17 20 	-9.10011e-17 	1.15053e-16 20 	-5.82106e-17 	1.223e-16 20 	-5.82106e-17 	1.223e-16 20 	-5.82106e-17 	1.223e-16 20 	3.51068e-18 	1.04742e-16 20 	-8.03026e-18 	7.37574e-17 20 	-2.37478e-19 	5.79165e-17 20 	-2.37478e-19 	5.79165e-17 20 	-2.37478e-19 	5.79165e-17 20 	3.55582e-17 	3.95971e-17 20 	8.72544e-17 	5.4285e-17 20 	9.23724e-17 	3.83064e-17 20 	9.23724e-17 	3.83064e-17 20 	9.23724e-17 	3.83064e-17 20 	5.66058e-17 	-2.61142e-17 20 	2.93503e-16 	-4.5931e-18 20 	3.28552e-16 	-2.14922e-17 20 	3.28552e-16 	-2.14922e-17 20 	3.28552e-16 	-2.14922e-17 20 	2.00745e-16 	-9.56109e-17 20 	3.633e-16 	-8.24037e-17 20 	3.71662e-16 	-7.83742e-17 20 	3.71662e-16 	-7.83742e-17 20 	3.71662e-16 	-7.83742e-17 20 	2.35136e-16 	-7.90398e-17 20 	3.69798e-16 	6.39439e-17 20 	3.75007e-16 	9.36741e-17 20 	3.75007e-16 	9.36741e-17 20 	3.75007e-16 	9.36741e-17 20 	2.5656e-16 	4.3224e-17 20 	3.35434e-16 	9.66298e-17 20 	4.1749e-16 	1.20835e-16 20 	5.2235e-16 	1.52181e-16 20 	6.27209e-16 	1.83526e-16 20 	6.76836e-16 	1.62757e-16
20 	-5.57242e-17 	3.71768e-17 20 	-5.5381e-17 	3.69946e-17 20 	-5.50377e-17 	3.68124e-17 20 	-5.46945e-17 	3.66302e-17 20 	-5.43513e-17 	3.64481e-17 20 	-5.4008e-17 	3.62659e-17 20 	-1.02314e-16 	-8.59464e-17 20 	-1.25632e-16 	-1.11296e-16 20 	-1.25632e-16 	-1.11296e-16 20 	-1.25632e-16 	-1.11296e-16 20 	-1.17222e-16 	-3.24578e-17 20 	-1.78899e-16 	-3.13793e-17 20 	-1.80913e-16 	-1.15344e-17 20 	-1.80913e-16 	-1.15344e-17 20 	-1.80913e-16 	-1.15344e-17 20 	-1.22684e-16 	2.13419e-17 20 	-1.00023e-16 	-5.89778e-17 20 	-4.76171e-17 	-1.00324e-16 20 	-4.76171e-17 	-1.00324e-16 20 	-4.76171e-17 	-1.00324e-16 20 	1.93878e-17 	-9.07479e-17 20 	1.10447e-16 	-1.4846e-16 20 	1.56481e-16 	-1.61881e-16 20 	1.56481e-16 	-1.61881e-16 20 	1.56481e-16 	-1.61881e-16 20 	1.44186e-16 	-1.2713e-16 20 	2.3303e-16 	-7.2467e-17 20 	2.11404e-16 	-5.83305e-17 20 	2.11404e-16 	-5.83305e-17 20 	2.11404e-16 	-5.83305e-17 20 	8.55587e-17 	-8.88063e-17 20 	1.56923e-16 	-7.94446e-18 20 	1.22151e-16 	2.22836e-17 20 	1.22151e-16 	2.22836e-17 20 	1.22151e-16 	2.22836e-17 20 	-8.70835e-18 	-6.85746e-18 20 	-5.94781e-17 	4.13423e-17 20 	-8.39759e-17 	5.40379e-17 20 	-8.39759e-17 	5.40379e-17 20 	-8.39759e-17 	5.40379e-17 20 	-7.51225e-17 	2.75607e-17 20 	-8.54269e-17 	-5.15387e-17 20 	-1.14808e-16 	-5.53734e-17 20 	-1.14808e-16 	-5.53734e-17 20 	-1.14808e-16 	-5.53734e-17 20 	-1.54777e-16 	1.71646e-17 20 	-1.9385e-16 	1.04158e-16 20 	-1.94853e-16 	1.30974e-16 20 	-1.94853e-16 	1.30974e-16 20 	-1.94853e-16 	1.30974e-16 20 	-1.57497e-16 	8.98626e-17 20 	-1.1716e-16 	1.29978e-16 20 	-5.75114e-17 	1.43161e-16 20 	-5.75114e-17 	1.43161e-16 20 	-5.75114e-17 	1.43161e-16 20 	4.20989e-18 	1.25603e-16 20 	-7.33105e-18 	9.46186e-17 20 	6.84455e-18 	6.58029e-17 20 	6.84455e-18 	6.58029e-17 20 	6.84455e-18 	6.58029e-17 20 	4.26402e-17 	4.74835e-17 20 	9.43364e-17 	6.21714e-17 20 	1.03646e-16 	3.31053e-17 20 	1.03646e-16 	3.31053e-17 20 	1.03646e-16 	3.31053e-17 20 	6.78798e-17 	-3.13153e-17 20 	3.04777e-16 	-9.7942e-18 20 	3.68534e-16 	-4.05348e-17 20 	3.68534e-16 	-4.05348e-17 20 	3.68534e-16 	-4.05348e-17 20 	2.40727e-16 	-1.14653e-16 20 	4.03282e-16 	-1.01446e-16 20 	4.18494e-16 	-9.41163e-17 20 	4.18494e-16 	-9.41163e-17 20 	4.18494e-16 	-9.41163e-17 20 	2.81967e-16 	-9.4782e-17 20 	4.16629e-16 	4.82018e-17 20 	4.26106e-16 	1.02283e-16 20 	4.26106e-16 	1.02283e-16 20 	4.26106e-16 	1.02283e-16 20 	3.07659e-16 	5.18329e-17 20 	3.86533e-16 	1.05239e-16 20 	4.4991e-16 	1.23595e-16 20 	5.5477e-16 	1.54941e-16 20 	6.5963e-16 	1.86286e-16 20 	7.09256e-16 	1.65518e-16